LAMMPS data file via write_data, version 22 Jul 2025, timestep = 0, units = real

3 atoms
2 atom types

-20 20 xlo xhi
-20 20 ylo yhi
-20 20 zlo zhi
-20 -20 5 xy xz yz

Masses

1 1
2 1

Atoms # full

2 0 2 -0.5 -36.073448978864334 -3.4569877728153884 -1.5934977082505313 1 0 0
1 0 1 1 4.926551021135662 -5.456987772815388 -2.5934977082505313 0 0 0
31 0 2 -0.5 2.9265510211356585 -4.456987772815388 -2.5934977082505313 0 0 0

Velocities

2 0 0 0
1 0 0 0
31 0 0 0
