LAMMPS data file via write_data, version 22 Jul 2025, timestep = 0, units = real

3 atoms
2 atom types

-20 20 xlo xhi
-20 20 ylo yhi
-20 20 zlo zhi
-20 -20 5 xy xz yz

Masses

1 1
2 1

Atoms # full

2 0 2 -0.5 2.926551021135662 -10.456987772815388 -1.5934977082505313 0 0 0
31 0 2 -0.5 -14.782322605504806 5.496030719250456 -8.788298442395543 0 0 0
1 0 1 1 -31.304779337395352 -4.426323603571536 8.220805226928007 1 0 0

Velocities

2 0 0 0
31 0 0 0
1 0 0 0
