LAMMPS data file via write_data, version 22 Jul 2025, timestep = 10000, units = real

3480 atoms
14 atom types
3556 bonds
12 bond types
6092 angles
16 angle types
7932 dihedrals
15 dihedral types
2112 impropers
7 improper types

0.19314145758033874 33.830860612419535 xlo xhi
0.13020447044180727 33.89379759955757 ylo yhi
0.17311180824265193 33.85089027175745 zlo zhi

Masses

1 12.011
2 12.011
3 12.011
4 1.008
5 1.008
6 14.007
7 65.38
8 1.008
9 1.008
10 12.011
11 15.9994
12 15.999
13 1.00784
14 0.0001

Atoms # full

948 1 1 0.43374348 2.1720130110880325 1.9727368375557868 8.301740703278716 0 0 0
953 1 3 -0.60255652 1.703256509504855 1.417195285991936 6.987981428117511 0 0 0
954 1 5 0.15704348 1.4814178182915807 0.41324790914781817 7.1732854565433914 0 0 0
955 1 5 0.15704348 2.4335792178659252 1.5047872232524415 6.213610650556471 0 0 0
956 1 5 0.15704348 0.7631564146545514 1.8540346269647994 6.682706616703909 0 0 0
1021 1 1 0.43374348 2.3250709151198117 8.390212017173265 2.112265928219001 0 0 0
1026 1 3 -0.60255652 1.938964396848407 7.002222274125465 1.7608099235588173 0 0 0
1027 1 5 0.15704348 2.7352552480982775 6.261552892220194 1.769026820867224 0 0 0
1028 1 5 0.15704348 1.3810009256012932 7.042507817591512 0.8523648344229063 0 0 0
1029 1 5 0.15704348 1.3069550720885594 6.665369655654198 2.533111279079944 0 0 0
1046 1 2 -0.19255652 1.8038667897771579 5.046430218386789 6.089925467837086 0 0 0
1048 1 2 -0.19255652 1.8206634419499543 6.043547798413206 5.22060194038784 0 0 0
1058 1 4 0.15834348 2.539659237825101 4.289206765892805 6.2552026726317695 0 0 0
1060 1 4 0.15834348 2.5829372763042406 6.1833217718074485 4.491502517773347 0 0 0
1094 1 6 -0.30095652 0.6810406037074814 5.223195965092094 6.841661294345947 0 0 0
1096 1 6 -0.30095652 0.6707111996826947 6.77708435335668 5.3404557520025016 0 0 0
1580 1 3 -0.60255652 7.17896104627405 1.8528195576025062 2.017817725269116 0 0 0
1583 1 5 0.15704348 6.919204682087501 0.9624964528445478 2.7244386886606082 0 0 0
1598 1 2 -0.19255652 6.348241509495856 1.6015074164525684 5.238376106078917 0 0 0
1600 1 2 -0.19255652 5.361381329577187 1.5799987654939038 6.138652883002181 0 0 0
1610 1 4 0.15834348 6.599201690134444 2.459196291713119 4.61504982237426 0 0 0
1612 1 4 0.15834348 4.602427276661778 2.307189114072149 6.226980785824408 0 0 0
1646 1 6 -0.30095652 7.067825290037309 0.4175052721716874 5.379639276149297 0 0 0
1648 1 6 -0.30095652 5.488769719862537 0.4937787800970482 6.911891831308873 0 0 0
1874 1 2 -0.19255652 5.531893665403035 6.2932436417018005 1.9938471480915925 0 0 0
1876 1 2 -0.19255652 6.540461830843696 5.4339368904004655 2.10996029920729 0 0 0
1886 1 4 0.15834348 4.954379704607225 6.680075762323862 2.7916992852607954 0 0 0
1888 1 4 0.15834348 6.9080789262802895 4.820991110101528 2.9536717276779525 0 0 0
1922 1 6 -0.30095652 5.534209250575877 6.920236685092457 0.827010327057206 0 0 0
1924 1 6 -0.30095652 7.1997433687262955 5.5227423320735936 0.8892420808889276 0 0 0
2251 9 8 0.418 2.2125675672947462 0.5609965936952042 0.5201844016192145 0 0 0
2252 9 11 -0.6830000000000001 2.329555473179086 1.4906689409876253 0.48918344732294283 0 0 0
3038 140 11 -0.6830000000000001 4.308853644116015 33.063920350354536 4.020537128599873 0 0 0
3361 194 8 0.418 7.1505202985000444 5.06915915559068 6.458834740609953 0 0 0
3362 194 11 -0.6830000000000001 7.425827689690324 5.295845122918286 5.569294539854788 0 0 0
1582 1 5 0.15704348 6.467635766384842 2.620749719712358 2.2685824084845976 0 0 0
3031 139 8 0.418 2.088748702333553 3.0848607123752836 1.7064782698031091 1 0 0
3037 140 8 0.418 4.46869759574938 33.68821558106109 4.7236937815244895 0 0 0
2240 7 11 -0.6830000000000001 6.737612655672681 4.973023138925008 8.130319176769683 0 0 0
3034 139 9 0.04 33.74180991186821 3.505281454367444 3.7662256173978883 0 0 0
3035 139 9 0.04 33.432905971985164 3.0322248755009986 2.0438131257191787 0 0 0
3244 174 9 0.04 5.32989982701841 7.490945390124571 4.847755716637344 0 0 0
2244 7 9 0.04 5.109814205547462 3.857295983909225 7.858318961885391 0 0 0
1581 1 5 0.15704348 7.065550812593102 1.5609953220409014 0.9420074184267294 0 0 0
946 1 7 0.73604348 0.228905836557372 4.19060646294215 8.40808549846908 0 0 0
2253 9 10 0.145 3.7225938908243053 1.6072143859922552 0.32179447820960383 0 0 0
1040 1 1 0.43374348 33.754676470874784 6.340463331338568 6.407437742626061 -1 0 0
3246 174 9 0.04 3.8294838052093674 8.332708307771007 5.478217614075081 0 0 0
3041 140 9 0.04 2.857953880666172 0.5670452447235732 3.3708251372893354 0 1 0
3039 140 10 0.145 3.0241257436867013 33.283500975587444 3.537834860421555 0 0 0
2243 7 9 0.04 4.663916681540401 5.4877578775731655 8.354706432484273 0 0 0
2241 7 10 0.145 5.412835615628147 4.734655109048252 8.471518134269726 0 0 0
2242 7 9 0.04 5.322645108277762 4.294249473718653 9.501233113170915 0 0 0
2239 7 8 0.418 7.098448706038644 5.533015858327089 8.862521202007086 0 0 0
3363 194 10 0.145 8.521204451127574 4.586362397977686 5.177671825340687 0 0 0
3365 194 9 0.04 8.44328182589704 3.526203872273263 4.969060649515323 0 0 0
3364 194 9 0.04 9.27847043276057 4.7815057737514 5.963971799267727 0 0 0
3366 194 9 0.04 8.94851343669522 5.1057212622334225 4.277553324228602 0 0 0
1575 1 1 0.43374348 8.61948540165949 2.2202453433828304 2.336473631556789 0 0 0
1576 1 2 -0.19255652 10.44977126897406 3.231529142524642 2.536945382017111 0 0 0
1577 1 2 -0.19255652 10.420290944961646 2.2400833346189506 3.430071009349369 0 0 0
1578 1 4 0.15834348 11.139481546955416 4.019247355144039 2.513667451917933 0 0 0
1579 1 4 0.15834348 11.176677405046217 2.159900630447693 4.286073488822037 0 0 0
1584 1 6 -0.30095652 9.271959313484535 3.191031210494789 1.7658716714137515 0 0 0
1585 1 6 -0.30095652 9.285333900057667 1.5357256254714802 3.2743662914774725 0 0 0
1594 1 1 0.43374348 14.822728750581593 2.062528383669819 8.414678316967528 0 0 0
1602 1 2 -0.19255652 13.959276681933703 1.977266608179419 6.488530907858242 0 0 0
1607 1 2 -0.19255652 14.85691251633969 2.9586717271779914 6.490675739085758 0 0 0
1614 1 4 0.15834348 13.309240634564471 1.6196486652109165 5.63387890349933 0 0 0
1619 1 4 0.15834348 15.165773438886378 3.375791213631948 5.537259396387636 0 0 0
1622 1 3 -0.60255652 10.149651231274321 1.3198249697428417 6.795877250939956 0 0 0
1627 1 5 0.15704348 9.908331726599265 1.3637771640415481 7.903339292123105 0 0 0
1630 1 5 0.15704348 9.151954650337217 1.4611148240369103 6.301750057905511 0 0 0
1639 1 5 0.15704348 10.788673834532094 2.1541177203445496 6.52052703639299 0 0 0
1650 1 6 -0.30095652 13.895264807612998 1.394129413665549 7.74402721371296 0 0 0
1655 1 6 -0.30095652 15.475186668607082 2.97866663831568 7.707171279235599 0 0 0
1877 1 2 -0.19255652 15.091120288805083 6.666555048625978 2.813900111323913 0 0 0
1884 1 2 -0.19255652 14.098425306427732 6.680562838887755 1.908606497903179 0 0 0
1889 1 4 0.15834348 15.329091709956957 5.855806519499154 3.37326861741371 0 0 0
1896 1 4 0.15834348 13.484369980464924 5.845403068807088 1.638497676782859 0 0 0
1897 1 3 -0.60255652 10.328120157291458 7.034440035329465 1.5860654923676616 0 0 0
1904 1 5 0.15704348 11.125525651719077 6.908468440198867 2.2822762963212364 0 0 0
1905 1 5 0.15704348 9.629835579875056 6.364416368237655 2.0770412876665283 0 0 0
1916 1 5 0.15704348 9.971028849931267 8.034644122165405 1.4024189347988545 0 0 0
1925 1 6 -0.30095652 15.691617273810623 7.9233198695064395 2.892077059727218 0 0 0
1932 1 6 -0.30095652 14.095740900800635 7.92663037639646 1.3342034009765362 0 0 0
2076 1 3 -0.60255652 15.53112253631642 6.535585992270908 6.377874016767748 0 0 0
2098 1 5 0.15704348 14.887123110667119 5.736685409371667 5.883475335820952 0 0 0
2102 1 5 0.15704348 15.25504021642799 7.467478883757763 5.831340452415058 0 0 0
2146 1 5 0.15704348 15.28895456439464 6.52967552195451 7.435691075234165 0 0 0
3049 142 8 0.418 14.53870736224234 2.6175957676967174 0.573510169263151 0 0 0
3050 142 11 -0.6830000000000001 14.686066589548807 3.0960141876573433 1.3727135522427272 0 0 0
3127 155 8 0.418 16.630807013153685 2.695994051823879 1.8221767340236734 0 0 0
3051 142 10 0.145 14.329287225784425 2.171161644246382 2.3503171755931196 0 0 0
3053 142 9 0.04 13.290040083319338 1.8441518398865957 2.2288063810788836 0 0 0
1592 1 1 0.43374348 10.63631597473257 33.75072341124125 6.338952129229299 0 -1 0
3230 172 11 -0.6830000000000001 12.258301238551095 5.894071987525492 5.2000189990951995 0 0 0
3229 172 8 0.418 11.817008386487988 5.787221951699198 4.384125295203306 0 0 0
2647 75 8 0.418 12.652864467149513 5.433422477326539 7.555441438524318 0 0 0
2651 75 9 0.04 10.903829569408003 6.32659764912328 9.710988794864207 0 0 0
3132 155 9 0.04 18.73798425211573 3.878942162883288 3.3058055179828085 0 0 0
1869 1 1 0.43374348 15.0656687362891 8.60435771733456 1.930342388290085 0 0 0
3232 172 9 0.04 13.020782190977899 7.89270423246578 4.863342510602869 0 0 0
1589 1 7 0.73604348 12.76243680387607 33.70550234095835 8.408950807505144 0 -1 0
2544 57 9 0.04 13.115081056516106 3.155603720893797 32.910944809914206 0 0 -1
3130 155 9 0.04 17.119648346483704 4.555337931400877 2.910389361952122 0 0 0
3128 155 11 -0.6830000000000001 17.502160021852337 2.6121578674417725 2.1919843568811723 0 0 0
1956 1 1 0.43374348 16.92001897400126 6.283713940482451 6.054697440827589 -1 0 0
1588 1 7 0.73604348 17.01324737740559 4.259368288557387 8.250779356300244 -1 0 0
3131 155 9 0.04 17.43660258545909 3.410992022977845 4.140037885032864 0 0 0
3129 155 10 0.145 17.694367195580433 3.6186540169243866 3.1767206826161285 0 0 0
343 1 3 -0.60255652 24.106001450726495 1.9405119464871379 1.7414610284625915 -1 0 0
344 1 5 0.15704348 23.41862605232122 2.795077302171099 1.9183625148091124 -1 0 0
345 1 5 0.15704348 23.762287961720315 1.0964505372536983 2.25101311273915 -1 0 0
346 1 5 0.15704348 24.026590064701267 1.8145514230044475 0.713914051050781 -1 0 0
358 1 2 -0.19255652 23.487947304145667 1.912609555231737 5.110923932327159 -1 0 0
360 1 2 -0.19255652 22.56862507203573 1.9237289135357634 6.044896341277567 -1 0 0
368 1 4 0.15834348 23.693683167999147 2.7092785887785413 4.475120743947919 -1 0 0
370 1 4 0.15834348 21.931240259940516 2.651797561255285 6.237470699959892 -1 0 0
398 1 6 -0.30095652 24.205288062175086 0.7462896712459524 5.200132720301701 -1 0 0
400 1 6 -0.30095652 22.59276198602592 0.6857403249113807 6.697347233458978 -1 0 0
561 1 2 -0.19255652 22.081125411067475 6.255421038584829 1.4022252791971368 -1 0 0
563 1 2 -0.19255652 23.099468508171928 5.373101419239532 1.4676336019867993 -1 0 0
571 1 4 0.15834348 21.347570357720073 6.472469894033343 2.141753473550372 -1 0 0
573 1 4 0.15834348 23.275793372560344 4.722940991618654 2.3228904492447353 -1 0 0
601 1 6 -0.30095652 22.328451869006287 7.0000935504686925 0.2474149802330069 -1 0 0
603 1 6 -0.30095652 23.857049585089854 5.440408383569825 0.3245901422083871 -1 0 0
1593 1 1 0.43374348 19.203865344706326 2.206429333666987 7.879883904713722 -1 0 0
1623 1 3 -0.60255652 18.884786316968757 1.754373043886472 6.472623724578192 -1 0 0
1632 1 5 0.15704348 17.85180520919581 1.5088396384127258 6.402143408948565 -1 0 0
1638 1 5 0.15704348 19.497727316682905 0.8287199532318349 6.20306277104934 -1 0 0
1642 1 5 0.15704348 19.07439876582066 2.5932919598166713 5.80590250059184 -1 0 0
1900 1 3 -0.60255652 18.570168335418643 6.996108315778362 1.4040983107149934 -1 0 0
1908 1 5 0.15704348 18.196579832888425 7.082066757453523 0.3867666342874923 -1 0 0
1914 1 5 0.15704348 17.825903830840986 6.59461639553926 2.1239242621745618 -1 0 0
1918 1 5 0.15704348 19.45919510682181 6.421378280188062 1.3589336907077734 -1 0 0
1980 1 2 -0.19255652 18.92168982558406 5.463857564501316 6.309230844511841 -1 0 0
1984 1 2 -0.19255652 18.921079940826026 6.27705463495288 5.2487659463373575 -1 0 0
2028 1 4 0.15834348 19.807215386172953 4.994189289528639 6.73468109995864 -1 0 0
2032 1 4 0.15834348 19.799179855505344 6.761377636514847 4.760351398104091 -1 0 0
2172 1 6 -0.30095652 17.618536943533332 5.334277857768831 6.720629061238825 -1 0 0
2176 1 6 -0.30095652 17.654188180552346 6.8155764786701285 5.0700936018064064 -1 0 0
2209 2 8 0.418 19.149426836464816 1.4243858226778818 1.774932036263512 0 0 0
2947 125 8 0.418 20.68262274517956 2.3657931282628293 0.8745153257648505 0 0 0
3082 147 9 0.04 22.17385821104311 5.654222377199422 8.494325698129284 0 0 0
3391 199 8 0.418 25.247099020924257 6.649210357469651 5.165367050541576 0 0 0
1870 1 1 0.43374348 18.994765148122788 8.403608034641405 1.8143713229069787 -1 0 0
3081 147 10 0.145 22.62842859144449 4.865505618873922 7.839735670373693 0 0 0
3079 147 8 0.418 22.68589266418968 5.994689844685833 6.313293030946188 0 0 0
3080 147 11 -0.6830000000000001 22.28346232614168 5.1335137587876165 6.536463509436089 0 0 0
3083 147 9 0.04 22.21411260554301 3.9716848258573925 8.266402725428598 0 0 0
3394 199 9 0.04 25.53590776684174 3.964971813341178 5.270134967045488 0 0 0
3396 199 9 0.04 26.65875676281391 4.895416329547618 4.233805890394079 0 0 0
2780 97 11 -0.6830000000000001 23.18525203852559 7.621267282796193 5.788824402512274 0 0 0
2781 97 10 0.145 22.94675857515614 8.478761673062865 4.678306910552542 0 0 0
2948 125 11 -0.6830000000000001 20.654374611664764 2.8809047114887694 33.81974580283647 0 0 -1
2784 97 9 0.04 22.8556058139189 8.005279723162754 3.708163792420043 0 0 0
2779 97 8 0.418 23.281361148172383 8.153956277615896 6.564406870197539 0 0 0
2213 2 9 0.04 20.38199238176887 2.0674781522525314 3.9054471579706154 0 0 0
1590 1 7 0.73604348 21.308493332747442 0.14065027909368394 8.122697387787289 -1 0 0
3084 147 9 0.04 23.719828514281854 4.784814657026694 8.050785005441556 0 0 0
2530 55 9 0.04 17.36764794853791 2.835471141287962 32.988218803956755 0 0 0
2949 125 10 0.145 21.106096954829578 2.010394026489972 32.75977019426982 0 0 -1
3033 139 10 0.145 0.48586396310092633 3.0398693449637206 2.8837600258627263 1 0 0
3393 199 10 0.145 25.71491530235248 4.859616041760293 4.701264518429241 0 0 0
338 1 1 0.43374348 25.531595400711563 2.2654909249914867 2.0163998382239443 -1 0 0
3392 199 11 -0.6830000000000001 25.669270652857076 5.944864102323467 5.61155502300934 0 0 0
3328 188 9 0.04 25.66999607108331 7.002297299484261 8.74194224492881 0 0 0
3036 139 9 0.04 0.8967286224915665 2.0087304592566495 2.9934593625190593 1 0 0
3032 139 11 -0.6830000000000001 1.6813976046952068 3.614633790759927 2.4369659202756493 1 0 0
3395 199 9 0.04 24.970563555542462 5.003569833565826 3.9416007230396657 0 0 0
339 1 2 -0.19255652 27.43681787237303 3.2668489697702534 1.919178301912118 -1 0 0
340 1 2 -0.19255652 27.536390818739886 2.2982985897215995 2.8165418854582347 -1 0 0
341 1 4 0.15834348 28.20008357203893 3.9572113094333288 1.6567925855754684 -1 0 0
342 1 4 0.15834348 28.39501715731699 2.0561312925575055 3.418426356226421 -1 0 0
347 1 6 -0.30095652 26.114314405319195 3.314920311394891 1.405537798441341 -1 0 0
348 1 6 -0.30095652 26.314058442325464 1.6518781147301582 2.874516822489484 -1 0 0
354 1 1 0.43374348 31.746125647049976 2.0729409386514313 8.495036112147627 -1 0 0
361 1 2 -0.19255652 30.825467935122585 2.0868696833307308 6.554095296643342 -1 0 0
366 1 2 -0.19255652 31.85019414812176 2.9778028939538737 6.584483496391297 -1 0 0
371 1 4 0.15834348 30.224937788958794 1.7881822007113675 5.660231555263816 -1 0 0
376 1 4 0.15834348 32.222513153906235 3.5637623638659517 5.7821646202828845 -1 0 0
378 1 3 -0.60255652 27.390360654386004 1.542969031923688 6.577589137983908 -1 0 0
382 1 5 0.15704348 28.053766963853956 1.9643861865559438 7.321837103258471 -1 0 0
385 1 5 0.15704348 26.3356541170482 1.487012466601034 7.039993610334259 -1 0 0
392 1 5 0.15704348 27.40327931238988 2.2776700810960384 5.734526158131571 -1 0 0
401 1 6 -0.30095652 30.84039428662163 1.4094001047275633 7.768958533171646 -1 0 0
406 1 6 -0.30095652 32.36681134665217 3.046771075534501 7.8448683794163205 -1 0 0
564 1 2 -0.19255652 31.61287528269116 6.576817690457684 2.8504179939345287 -1 0 0
569 1 2 -0.19255652 30.671406569108843 6.591873593715797 1.8516787330753388 -1 0 0
574 1 4 0.15834348 31.823156571238552 5.697667554731967 3.446907538928776 -1 0 0
579 1 4 0.15834348 30.014270804836265 5.813185953205444 1.6192429661034544 -1 0 0
580 1 3 -0.60255652 27.13270190621739 7.066566155059741 1.1938441973069769 -1 0 0
586 1 5 0.15704348 27.224517225194663 8.1418023958526 1.1758014238343948 -1 0 0
587 1 5 0.15704348 27.702965691840774 6.596594112749339 1.9509542147108836 -1 0 0
596 1 5 0.15704348 26.126408461181793 6.61229388678937 1.2282887473215927 -1 0 0
604 1 6 -0.30095652 32.25353070802261 7.748145468373775 2.894537863625862 -1 0 0
609 1 6 -0.30095652 30.82281094906761 7.788408780896234 1.2626507802925988 -1 0 0
714 1 3 -0.60255652 32.56093377856637 6.9513737610221185 7.079778373707729 -1 0 0
731 1 5 0.15704348 32.28710411062583 6.356925461069398 7.969261587292675 -1 0 0
733 1 5 0.15704348 31.680437390554705 6.9004693234233985 6.4372984534963775 -1 0 0
767 1 5 0.15704348 32.925244189168225 7.944351482789897 7.374642405226004 -1 0 0
2371 29 8 0.418 1.0224440382400126 2.461139293284602 33.43327719290024 1 0 -1
2373 29 10 0.145 0.694046256185102 4.34778009547485 33.25581574030562 1 0 -1
2863 111 8 0.418 27.97483935755485 8.250023904816047 6.013988196547051 0 0 0
3421 204 8 0.418 27.080081215486466 6.219770545705028 6.518997643645644 0 0 0
3422 204 11 -0.6830000000000001 27.79869411225994 6.8109812431378245 6.860444024963562 0 0 0
2374 29 9 0.04 33.755500301035994 4.666320144651572 0.4159092004624348 0 0 0
3424 204 9 0.04 29.53729033681318 5.812181569468087 6.418317279890756 0 0 0
3423 204 10 0.145 28.824754182095685 5.931934406388666 7.190727187693269 0 0 0
3425 204 9 0.04 29.4383343986479 6.460821493393792 7.894613644965847 0 0 0
3426 204 9 0.04 28.4649589569072 4.982883627334638 7.646600766378822 0 0 0
2372 29 11 -0.6830000000000001 0.3952304737004258 3.044355184198487 32.997064727281085 1 0 -1
557 1 1 0.43374348 31.76413160825998 8.438299571377117 1.9087627758018302 -1 0 0
353 1 1 0.43374348 27.710594615411168 33.84799625124184 6.200123647181059 -1 -1 0
350 1 7 0.73604348 25.75195066050428 33.86662973903201 3.97852279756677 -1 -1 0
418 1 1 0.43374348 27.574160723437828 6.576764152523823 33.532303047278866 -1 0 -1
3243 174 10 0.145 4.915366534882846 8.469388632343653 5.131485414555353 0 0 0
3245 174 9 0.04 5.486567208513037 8.750002473686447 6.084653495474758 0 0 0
2260 10 9 0.04 7.939089825570573 8.420733263881907 4.033789591064467 0 0 0
1035 1 7 0.73604348 33.79900022018111 8.451691638704148 4.1781302350327465 -1 0 0
3241 174 8 0.418 4.523142121038942 9.550684278888042 3.5017462679471407 0 0 0
3242 174 11 -0.6830000000000001 5.116861855301741 9.600297066004506 4.2651846911326725 0 0 0
1022 1 2 -0.19255652 2.2439855831454416 10.444796615316886 2.8875871592040747 0 0 0
1023 1 2 -0.19255652 3.188347193485191 10.400938059452667 1.8985615669755798 0 0 0
1024 1 4 0.15834348 1.9214145623390848 11.307791204637923 3.4556363233272296 0 0 0
1025 1 4 0.15834348 3.69464986015669 11.262082577029204 1.517320788834877 0 0 0
1030 1 6 -0.30095652 1.6891814639553204 9.135364110031556 2.9825039767373016 0 0 0
1031 1 6 -0.30095652 3.278489436084512 9.077980560581054 1.4684839688238898 0 0 0
1037 1 1 0.43374348 0.24620477204664054 10.499449419948299 6.291565664035262 0 0 0
1043 1 1 0.43374348 2.477134316905412 14.842395250121053 8.303632083289342 0 0 0
1051 1 2 -0.19255652 3.7337185323666517 14.38385921387011 6.646244656026017 0 0 0
1054 1 2 -0.19255652 2.6987775934072533 13.544035532080951 6.602960506038293 0 0 0
1063 1 4 0.15834348 4.483928129384131 14.562403397573933 5.912756430101907 0 0 0
1066 1 4 0.15834348 2.5250247381421356 12.777885180260373 5.811751106366903 0 0 0
1069 1 3 -0.60255652 1.6148795780965215 10.137238858263029 6.6412701674668515 0 0 0
1076 1 5 0.15704348 1.722885304499025 9.037305177397704 6.656670840677479 0 0 0
1077 1 5 0.15704348 1.8974921014142396 10.525588302005813 7.620010456770269 0 0 0
1088 1 5 0.15704348 2.2249893363671025 10.449079694943112 5.834423581737979 0 0 0
1099 1 6 -0.30095652 3.5868505484960016 15.213171412712091 7.732794599688574 0 0 0
1102 1 6 -0.30095652 1.9557826368335163 13.75340323115723 7.740215629082747 0 0 0
1880 1 2 -0.19255652 6.857856285573591 13.898479034150675 1.9082323380893453 0 0 0
1881 1 2 -0.19255652 6.888588887412068 14.87150297612233 2.8135181758283383 0 0 0
1892 1 4 0.15834348 6.000498378551569 13.240969539560698 1.6658147811666675 0 0 0
1893 1 4 0.15834348 6.042301262826779 15.161527167457825 3.3415553340167223 0 0 0
1898 1 3 -0.60255652 7.059098474304726 10.252834817739746 1.2806678904715416 0 0 0
1903 1 5 0.15704348 7.8829122548748725 10.889480574780675 1.6434448852784538 0 0 0
1906 1 5 0.15704348 7.444390861159838 9.218330840228125 1.388249689853746 0 0 0
1915 1 5 0.15704348 6.3432862774001935 10.565847443754214 2.0048883335746597 0 0 0
1928 1 6 -0.30095652 8.101081922139496 13.87389668458723 1.3312697894057146 0 0 0
1929 1 6 -0.30095652 8.09785882348854 15.45262196782115 2.8793731256714743 0 0 0
2068 1 3 -0.60255652 7.1599970177399515 15.323005678489691 6.382200392444405 0 0 0
2090 1 5 0.15704348 7.204432347448085 14.690765827559863 5.51969662543303 0 0 0
2110 1 5 0.15704348 6.531944319111716 14.779313310185334 7.095737108154782 0 0 0
2138 1 5 0.15704348 8.176844893063015 15.459109562131957 6.7448743327119125 0 0 0
2425 38 8 0.418 1.3929046594709318 13.378780716336507 0.8688979097267097 0 0 0
2426 38 11 -0.6830000000000001 0.48298580588045714 13.133461005804909 0.841008188715906 0 0 0
2809 102 8 0.418 3.3561882725002525 14.410549673823684 1.6011980108517252 0 0 0
2810 102 11 -0.6830000000000001 3.2080861429507532 13.553591470815539 1.2862725142739129 0 0 0
3479 213 9 0.04 4.87271201293854 10.826092885068014 8.993247571448986 0 0 0
3338 190 11 -0.6830000000000001 3.4448656520190166 16.075407027305822 2.1212926745832412 0 0 0
2427 38 10 0.145 33.59045255712791 13.193371251034648 2.170415653523526 -1 0 0
1948 1 1 0.43374348 6.610564378487316 16.68137856448495 6.0348408735159325 0 0 0
1032 1 7 0.73604348 0.35406117957329963 12.749395184273963 8.423821342089337 0 0 0
2430 38 9 0.04 32.94908673623271 12.34011805943169 2.4163361991135397 -1 0 0
3475 213 8 0.418 7.425872717381567 12.118975089609302 8.886494234446367 0 0 0
3478 213 9 0.04 6.164175690651388 10.547095761007883 8.019444419440042 0 0 0
2276 13 11 -0.6830000000000001 8.427059594918628 11.868223898977936 7.205335224831746 0 0 0
2429 38 9 0.04 33.08067109889409 14.172735186568572 2.3061397925184455 -1 0 0
2428 38 9 0.04 0.7682923761870493 13.218021347983917 2.9084950586300353 0 0 0
3477 213 10 0.145 5.703902124359234 11.276426641506596 8.574187804167115 0 0 0
3480 213 9 0.04 5.327562517118004 12.001597368906008 7.866360540488718 0 0 0
2257 10 8 0.418 6.670376833424829 10.077760820207825 4.849861644040224 0 0 0
2259 10 10 0.145 8.33359629303845 8.934754663544819 4.9052974169612416 0 0 0
2258 10 11 -0.6830000000000001 7.581473983009322 10.152392394967773 5.150198241195958 0 0 0
2275 13 8 0.418 8.237539086333248 11.257131831661345 6.495924564050518 0 0 0
3342 190 9 0.04 2.487384429969271 15.540624158657984 3.9339681708337864 0 0 0
3339 190 10 0.145 2.9169219322815367 16.441944201959977 3.414521212458514 0 0 0
3341 190 9 0.04 2.1091908620991378 17.140095222946734 3.289977752828747 0 0 0
3234 172 9 0.04 13.04506715178867 7.239855028306228 6.49022859487994 0 0 0
3231 172 10 0.145 12.448312472987586 7.2176752701464135 5.516665906335084 0 0 0
3233 172 9 0.04 11.488487310838753 7.706349134726552 5.619257797112903 0 0 0
2262 10 9 0.04 8.18033156827793 8.366454049348304 5.81414951095994 0 0 0
1934 1 7 0.73604348 8.706837383004283 16.896022396508293 4.012315026604779 0 -1 0
1872 1 1 0.43374348 8.781462014401043 14.89162866775128 1.86092841430123 0 0 0
1873 1 2 -0.19255652 11.57018441397639 10.572943676995683 1.6977988337698133 0 0 0
1875 1 2 -0.19255652 10.633578272565588 11.569983952644817 1.6710852462841632 0 0 0
1885 1 4 0.15834348 12.039436059527748 10.162997151408211 2.5966303257652728 0 0 0
1887 1 4 0.15834348 10.27844298585432 12.154374300789224 2.5217743575910254 0 0 0
1899 1 3 -0.60255652 15.445587559723297 9.887223693907199 1.4209919431611224 0 0 0
1902 1 3 -0.60255652 10.08365109748001 15.446855059217274 1.3849598622461692 0 0 0
1907 1 5 0.15704348 14.61958987483179 10.531494280359334 1.3530961836506123 0 0 0
1909 1 5 0.15704348 10.592217299885855 15.892776005510756 2.2245843826641902 0 0 0
1911 1 5 0.15704348 9.927206425491859 16.178157322871876 0.5192624651786553 0 0 0
1913 1 5 0.15704348 15.960060277618119 9.889496179138408 0.50323464558097 0 0 0
1917 1 5 0.15704348 15.997129718660847 10.277200449356966 2.296273136994374 0 0 0
1919 1 5 0.15704348 10.726183995643625 14.59626527890964 1.1430535537503448 0 0 0
1921 1 6 -0.30095652 11.75800873056961 10.102043706216252 0.4598828261071351 0 0 0
1923 1 6 -0.30095652 10.129856273831123 11.547427263108965 0.38863006022275415 0 0 0
1964 1 1 0.43374348 15.132907824172863 14.898884791831387 8.071610355533267 0 0 0
1971 1 2 -0.19255652 10.925393217041398 15.147850939571619 4.836510839878836 0 0 0
1977 1 2 -0.19255652 15.419290180438532 11.473784491796016 6.077547643976697 0 0 0
1983 1 2 -0.19255652 15.47221370144026 10.563114961608543 5.10487331598811 0 0 0
1989 1 2 -0.19255652 11.877432714853875 15.146779664139386 5.823199226855695 0 0 0
2019 1 4 0.15834348 10.863058103912248 14.422408593729816 4.087753892823829 0 0 0
2025 1 4 0.15834348 14.559759295687925 12.020810796708725 6.355544008940472 0 0 0
2031 1 4 0.15834348 14.552429494738135 10.238530952829874 4.557073134045356 0 0 0
2037 1 4 0.15834348 12.594881081589529 14.329155739009455 5.930069119946582 0 0 0
2084 1 3 -0.60255652 15.598332291550904 15.288641547450373 6.786937842029773 0 0 0
2118 1 5 0.15704348 16.43975434276392 16.05870611658835 6.969192556642009 0 0 0
2130 1 5 0.15704348 14.790584917158139 15.709998195708792 6.143787187432898 0 0 0
2154 1 5 0.15704348 16.075406195026567 14.429359957953794 6.235514702928341 0 0 0
2163 1 6 -0.30095652 10.266226738296915 16.324171421756464 4.955193121249105 0 0 0
2169 1 6 -0.30095652 16.61741646001944 11.469191063373428 6.774208256308407 0 0 0
2175 1 6 -0.30095652 16.696948314551918 9.905929640311532 5.209513177945948 0 0 0
2181 1 6 -0.30095652 11.802355642451118 16.306887710365128 6.497158856644836 0 0 0
2488 48 9 0.04 14.582364104733017 12.347859382187288 3.2063235331162074 0 0 1
2489 48 9 0.04 12.914147069315671 12.697855131942383 3.84615961756322 0 0 1
2277 13 10 0.145 9.608051942905401 12.43096374595503 6.953175215207902 0 0 0
2278 13 9 0.04 10.340517005073735 11.626710240783456 6.61667061692914 0 0 0
2280 13 9 0.04 9.964511795866605 12.92272456801098 7.814616073702633 0 0 0
2485 48 8 0.418 15.142768204735358 14.200301627595586 3.0836172744714303 0 0 1
2486 48 11 -0.6830000000000001 14.23956342753748 14.297328148598625 3.4362465268610562 0 0 1
2487 48 10 0.145 13.724374757754207 13.05452599197909 3.1461020370400337 0 0 1
2490 48 9 0.04 13.278701308685811 13.018713063679357 2.102267015431491 0 0 1
1943 1 7 0.73604348 12.967698324084239 16.97521099744862 8.025390427027506 0 -1 0
1947 1 1 0.43374348 10.75462861440292 16.93924267604317 6.012136641086414 0 -1 0
2279 13 9 0.04 9.577008046274955 13.153091679292485 6.160775327764447 0 0 0
2900 117 11 -0.6830000000000001 16.514358785270183 14.173341452461214 2.0723929499801894 0 0 0
2899 117 8 0.418 16.849574901127273 14.024193785502128 1.1801071057826633 0 0 0
2518 53 9 0.04 16.52246483320505 16.127503431401713 33.68374659101966 0 0 0
2261 10 9 0.04 9.371479172308009 9.270144250086215 4.809223885658599 0 0 0
2306 18 11 -0.6830000000000001 12.52455397875578 9.553608520924575 8.428908138789948 0 0 0
2305 18 8 0.418 12.828718665249497 8.635313708434165 8.438517015935163 0 0 0
2302 17 9 0.04 12.347456809529847 16.410000063928624 33.36097350995915 0 0 0
2303 17 9 0.04 12.650053651379901 14.640279734157428 32.866221387881815 0 0 0
2300 17 11 -0.6830000000000001 13.881876930528342 15.993111057364436 31.885133204084575 0 0 0
2299 17 8 0.418 14.413843703793368 16.698657278280457 32.164164812791 0 0 0
1940 1 7 0.73604348 17.177838573010316 8.404236998175666 4.037340663171341 -1 0 0
2782 97 9 0.04 22.07134469303235 9.065543453450955 4.877386971421556 0 0 0
2903 117 9 0.04 17.278896632544424 14.732414912400918 3.957465114818402 0 0 0
2783 97 9 0.04 23.69641341121556 9.241728033653281 4.523909136742698 0 0 0
2724 87 9 0.04 22.668250056655403 11.311376643808549 4.123513375935104 0 0 0
2904 117 9 0.04 18.344369567545233 14.072323305901358 2.864862402010203 0 0 0
1953 1 1 0.43374348 17.330981275218637 10.481600161860651 6.213006415043914 -1 0 0
566 1 2 -0.19255652 23.738115258828675 13.788141436194184 1.9237982427018085 -1 0 0
567 1 2 -0.19255652 23.783707955605465 14.836009811466726 2.7772897265913983 -1 0 0
576 1 4 0.15834348 22.98276782051953 13.046894155211811 1.6643040368759183 -1 0 0
577 1 4 0.15834348 22.913112039254276 15.013967296264322 3.3422088951399855 -1 0 0
581 1 3 -0.60255652 23.81864535504838 9.84711385445664 1.1141167936094991 -1 0 0
585 1 5 0.15704348 24.975728728154472 9.682974823685264 0.9691516008058941 -1 0 0
588 1 5 0.15704348 23.48964288955365 8.86059629617868 1.2754523624496619 -1 0 0
595 1 5 0.15704348 23.635694994747176 10.632788409288485 1.8749186368705488 -1 0 0
606 1 6 -0.30095652 24.92504013449389 13.89465978008532 1.2298659349077767 -1 0 0
607 1 6 -0.30095652 24.941575215567923 15.54443993105749 2.666644237000004 -1 0 0
708 1 3 -0.60255652 23.924547622654778 15.398490373476116 6.465701195819712 -1 0 0
724 1 5 0.15704348 24.909358884655962 15.45267300584505 6.877034980282144 -1 0 0
740 1 5 0.15704348 23.91566269587833 14.832309594486901 5.556790549866497 -1 0 0
760 1 5 0.15704348 23.230347962244974 15.030323709832627 7.189724863940153 -1 0 0
1878 1 2 -0.19255652 19.10311082222374 10.311897518654895 2.8211300000714643 -1 0 0
1883 1 2 -0.19255652 19.970769014257627 10.315073879835728 1.7838914368685268 -1 0 0
1890 1 4 0.15834348 18.933270569210414 11.107219291337552 3.4921544494936163 -1 0 0