LAMMPS data file via write_data, version 22 Jul 2025, timestep = 5000, units = real

2238 atoms
11 atom types
2521 bonds
10 bond types
4643 angles
14 angle types
7311 dihedrals
15 dihedral types
2112 impropers
7 improper types

0 34.02400207519531 xlo xhi
0 34.02400207519531 ylo yhi
0 34.02400207519531 zlo zhi

Masses

1 12.011
2 12.011
3 12.011
4 1.008
5 1.008
6 14.007
7 65.38
8 1.008
9 1.008
10 12.011
11 15.9994

Atoms # full

1580 1 3 -0.602556521739 7.3069142990481 1.8906412823236707 1.6909521840597097 0 0 0
1581 1 5 0.157043478261 6.644497484293456 2.7548358972672795 1.6443706559630125 0 0 0
1582 1 5 0.157043478261 6.891644828254037 1.1479916954631026 2.382509863952744 0 0 0
1583 1 5 0.157043478261 7.408971573874541 1.4998549336129832 0.6915503378338291 0 0 0
1598 1 2 -0.192556521739 6.4410623253553005 1.679517350357092 5.112125888176558 0 0 0
1610 1 4 0.158343478261 6.643775318386251 2.3816358275314657 4.281638559332025 0 0 0
1646 1 6 -0.300956521739 7.201421482095177 0.5987763249551654 5.377360074736655 0 0 0
1876 1 2 -0.192556521739 6.4933761401734476 5.578712448409572 1.7587437447754142 0 0 0
1888 1 4 0.158343478261 6.717091678211009 4.824398044559893 2.4806405146691985 0 0 0
1924 1 6 -0.300956521739 7.202420889486565 5.631161911482068 0.5993555703123074 0 0 0
1026 1 3 -0.602556521739 1.7910039673244087 7.122957914201354 1.406912554600769 0 0 0
1027 1 5 0.157043478261 1.386459159291441 6.471423569794377 2.163992724605214 0 0 0
1028 1 5 0.157043478261 2.587354081604101 6.595098431208161 0.8725073390140938 0 0 0
1029 1 5 0.157043478261 1.0258171827714833 7.268138897390553 0.6855353670402695 0 0 0
1048 1 2 -0.192556521739 1.8279904474758215 6.351663554113096 5.0684963505373135 0 0 0
1060 1 4 0.158343478261 2.503671381826447 6.648452610718544 4.275669543211481 0 0 0
1096 1 6 -0.300956521739 0.6819052893407193 7.009279597803162 5.210487575204879 0 0 0
1874 1 2 -0.192556521739 5.5489359545127686 6.525245657392878 1.720049897310261 0 0 0
1886 1 4 0.158343478261 4.817341631234091 6.895509732229417 2.4054388418165105 0 0 0
1922 1 6 -0.300956521739 5.6505100689362 7.149993568505298 0.5112056978355177 0 0 0
946 1 7 0.736043478261 0.12051930610059607 4.301805311483622 8.285598378664188 0 0 0
948 1 1 0.433743478261 2.1935637236531758 2.072652594213222 8.22320350586788 0 0 0
953 1 3 -0.602556521739 1.6980739340133726 1.5989849076287512 6.899972966684907 0 0 0
954 1 5 0.157043478261 2.2805807031908296 0.8164325864737618 6.48264851854709 0 0 0
955 1 5 0.157043478261 1.596756290529835 2.41544525105082 6.180803659361477 0 0 0
956 1 5 0.157043478261 0.6956302642078143 1.1772297042730215 7.010962908984478 0 0 0
1046 1 2 -0.192556521739 1.8395310317841191 5.387901110816167 6.049573657725728 0 0 0
1058 1 4 0.158343478261 2.5632643057021403 4.6374998882776595 6.331351211984163 0 0 0
1094 1 6 -0.300956521739 0.6842451077694798 5.498837855851669 6.717934979345051 0 0 0
1600 1 2 -0.192556521739 5.409299280023606 1.6603123084463403 6.03726818980199 0 0 0
1612 1 4 0.158343478261 4.523002546514435 2.2894972783831955 6.15102312158729 0 0 0
1648 1 6 -0.300956521739 5.627684858172721 0.6262743162977339 6.847375782145408 0 0 0
1021 1 1 0.433743478261 2.197378628137089 8.468299609134874 1.9153624894637378 0 0 0
1587 1 7 0.736043478261 8.777169012091244 0.035542335659671534 4.188110852064268 0 0 0
1951 1 1 0.433743478261 6.629393137708383 10.634708337420046 16.892414784486064 0 0 0
1586 1 7 0.736043478261 8.659545964759571 0.030330181270279866 12.574099775930051 0 0 0
1575 1 1 0.433743478261 8.655293538167282 2.2480331605575072 2.1397070747766764 0 0 0
1576 1 2 -0.192556521739 10.559025572601325 3.1919894638999446 2.154624975262728 0 0 0
1577 1 2 -0.192556521739 10.581779679309822 2.220775316592196 3.0862256879787164 0 0 0
1578 1 4 0.158343478261 11.247310134858397 3.9145685160108523 1.7915992640186567 0 0 0
1579 1 4 0.158343478261 11.287012826611187 1.880420338204579 3.8054979723615334 0 0 0
1584 1 6 -0.300956521739 9.371875815121527 3.2021426159085395 1.5544436875275212 0 0 0
1585 1 6 -0.300956521739 9.37518634923943 1.6253326286644714 3.064569187968672 0 0 0
1897 1 3 -0.602556521739 10.572697514055195 6.891709412401812 1.4497834297297332 0 0 0
1904 1 5 0.157043478261 11.140778741690532 7.778426500237532 1.8672300345173127 0 0 0
1905 1 5 0.157043478261 10.656809492565475 6.024773593019281 2.2004297450818764 0 0 0
1916 1 5 0.157043478261 9.532016161765492 7.270614030629968 1.6733167632621535 0 0 0
1877 1 2 -0.192556521739 14.970556562404067 6.909582495781703 3.0332267230901957 0 0 0
1884 1 2 -0.192556521739 13.986147414876344 6.919599027117253 2.0861017040575387 0 0 0
1889 1 4 0.158343478261 15.230627981952113 6.2161885934656835 3.8101075634637125 0 0 0
1896 1 4 0.158343478261 13.202629616287362 6.2299603693203665 1.8289961051418493 0 0 0
1925 1 6 -0.300956521739 15.670788234177445 8.040480804080937 2.886776500847462 0 0 0
1932 1 6 -0.300956521739 14.142826632998636 8.044823786511957 1.3957878846949294 0 0 0
1592 1 1 0.433743478261 10.81346614617137 0.10086563511901665 6.324563692335571 0 0 0
1622 1 3 -0.602556521739 10.282860279893058 1.4291617671464445 6.839167420874146 0 0 0
1627 1 5 0.157043478261 9.739184435980583 1.9497906586838276 6.096901721775007 0 0 0
1630 1 5 0.157043478261 11.06855115900732 2.0422642049632316 7.164914789532337 0 0 0
1639 1 5 0.157043478261 9.654004284404337 1.236698160697441 7.651454065568631 0 0 0
1589 1 7 0.736043478261 12.92278181661031 0.08464733548846405 8.370880803420098 0 0 0
1602 1 2 -0.192556521739 14.111212801774323 2.098882418986602 6.496130331568 0 0 0
1607 1 2 -0.192556521739 15.087018655374656 3.063801411131426 6.4586837397555845 0 0 0
1614 1 4 0.158343478261 13.338589561468511 1.8117422555268718 5.81533808507272 0 0 0
1619 1 4 0.158343478261 15.436831708382579 3.724414196708677 5.684674475377969 0 0 0
1650 1 6 -0.300956521739 14.163418769980407 1.5557952536030197 7.709421150050814 0 0 0
1655 1 6 -0.300956521739 15.697474927771198 3.0206619764020672 7.650335520421758 0 0 0
2076 1 3 -0.602556521739 15.68825109793659 6.756021014456543 6.63932602752918 0 0 0
2098 1 5 0.157043478261 14.950045493738243 6.030187646758995 6.3298261951842925 0 0 0
2102 1 5 0.157043478261 15.313832493181314 7.705283749730799 6.230734177661613 0 0 0
2146 1 5 0.157043478261 15.649373193603225 6.852037207415362 7.725124972967297 0 0 0
1949 1 1 0.433743478261 10.86785446338695 6.338989279765563 16.83318741606438 0 0 0
1022 1 2 -0.192556521739 2.1965620833251043 10.362914882777181 2.975470910723278 0 0 0
1023 1 2 -0.192556521739 3.1426274415178046 10.412032057302826 1.9801365233486572 0 0 0
1024 1 4 0.158343478261 1.882902390388595 11.060498400996709 3.7260678671639513 0 0 0
1025 1 4 0.158343478261 3.8687376398376108 11.152461108260166 1.688965552536525 0 0 0
1030 1 6 -0.300956521739 1.5896820227905069 9.160996067978067 2.8625579001369243 0 0 0
1031 1 6 -0.300956521739 3.1069328698920864 9.218513180131369 1.3441098276867 0 0 0
1035 1 7 0.736043478261 0.050810865069456854 8.548168067027417 4.051127128357909 0 0 0
1898 1 3 -0.602556521739 6.845529353631105 10.326935428506703 1.375532894364311 0 0 0
1903 1 5 0.157043478261 6.043040891858041 10.350382877622767 2.072301856699244 0 0 0
1906 1 5 0.157043478261 7.656323826062676 10.86438051448946 1.8323933222388884 0 0 0
1915 1 5 0.157043478261 7.150886375650259 9.313257262518512 1.42565027068697 0 0 0
1880 1 2 -0.192556521739 7.049501232496939 13.757466910289516 2.367957693102094 0 0 0
1881 1 2 -0.192556521739 7.064429818015698 14.770775863916876 3.2832323133838677 0 0 0
1892 1 4 0.158343478261 6.387893333676624 12.939390743880836 2.1929797526864676 0 0 0
1893 1 4 0.158343478261 6.453738600454192 14.997086282483114 4.128387593670842 0 0 0
1928 1 6 -0.300956521739 8.097454065951261 13.966863577739675 1.5323118449235535 0 0 0
1929 1 6 -0.300956521739 8.144401499066124 15.529242545236656 3.0193250705523247 0 0 0
1037 1 1 0.433743478261 0.19461813839218597 10.738318475178374 6.252846111599989 0 0 0
1069 1 3 -0.602556521739 1.4667018991561294 10.188990422996808 6.825111092567416 0 0 0
1076 1 5 0.157043478261 2.190469133045993 10.954047065449654 7.046868309262736 0 0 0
1077 1 5 0.157043478261 2.0013103988759204 9.491586100644714 6.206747231460867 0 0 0
1088 1 5 0.157043478261 1.2847540450544135 9.686127019558635 7.745723762659665 0 0 0
1032 1 7 0.736043478261 0.17509419379333696 12.820003120055867 8.355819436144767 0 0 0
1043 1 1 0.433743478261 2.275128759497029 14.963122076808453 8.527690478297297 0 0 0
1051 1 2 -0.192556521739 3.167582708673999 15.028344835637405 6.584772981025934 0 0 0
1054 1 2 -0.192556521739 2.2328960225510297 14.065435081097437 6.577712617725528 0 0 0
1063 1 4 0.158343478261 3.8647749001035674 15.368758707285458 5.862849135110804 0 0 0
1066 1 4 0.158343478261 1.8415129631459848 13.418037022466073 5.825539755539846 0 0 0
1099 1 6 -0.300956521739 3.2122944958094304 15.553792370947004 7.835387434184308 0 0 0
1102 1 6 -0.300956521739 1.6722987072545414 14.0585521832437 7.80855477007196 0 0 0
2068 1 3 -0.602556521739 7.1921213956851675 15.737387828536344 6.780898049227197 0 0 0
2090 1 5 0.157043478261 7.937439275058117 15.23860943614802 6.148094664793814 0 0 0
2110 1 5 0.157043478261 6.416485675384558 14.988803109293398 6.901438980660498 0 0 0
2138 1 5 0.157043478261 7.687210702945469 15.82296066362951 7.7120854628972495 0 0 0
1869 1 1 0.433743478261 15.139409042308108 8.737849948907813 1.911442128767804 0 0 0
1873 1 2 -0.192556521739 11.95323490054753 10.940863715102969 1.5766495334000799 0 0 0
1885 1 4 0.158343478261 12.766215893328887 10.758069729664115 2.269528270257593 0 0 0
1899 1 3 -0.602556521739 15.680029059519514 10.01713916244878 1.3759466171451822 0 0 0
1907 1 5 0.157043478261 15.694513195036091 10.850257239699854 2.08883529730938 0 0 0
1913 1 5 0.157043478261 15.132049554016703 10.426470304898647 0.5369730836961758 0 0 0
1917 1 5 0.157043478261 16.709571560196203 9.860311892970318 1.0851881173883047 0 0 0
1921 1 6 -0.300956521739 11.81391489435038 10.24206371449153 0.4421573555635268 0 0 0
1983 1 2 -0.192556521739 15.50294183636842 10.736330325635304 5.256280234686947 0 0 0
2031 1 4 0.158343478261 14.800728576337713 10.36135296531898 4.548410752710405 0 0 0
2175 1 6 -0.300956521739 16.70481398874942 10.145766899897826 5.292302147102691 0 0 0
1872 1 1 0.433743478261 8.762124231135425 15.004730238238016 1.9672067638654278 0 0 0
1875 1 2 -0.192556521739 10.894098819770782 11.858145061407162 1.6133020703816665 0 0 0
1887 1 4 0.158343478261 10.602225893807892 12.60531266429086 2.3556461101683124 0 0 0
1902 1 3 -0.602556521739 10.01945234468163 15.551033410505724 1.3180273435456837 0 0 0
1909 1 5 0.157043478261 10.601242353226134 16.15951391891965 1.9926894156904982 0 0 0
1911 1 5 0.157043478261 9.767127058824544 16.12642826705564 0.4719071316148843 0 0 0
1919 1 5 0.157043478261 10.667906520468332 14.747921797654685 1.083404340746632 0 0 0
1923 1 6 -0.300956521739 10.240774986433467 11.688883389765307 0.4584448128333626 0 0 0
1971 1 2 -0.192556521739 10.880760686676302 15.338495409614088 5.207170314257009 0 0 0
2019 1 4 0.158343478261 10.59519461710755 14.652767048253724 4.427912525760184 0 0 0
2163 1 6 -0.300956521739 10.264416737675836 16.506148526715815 5.33966859478575 0 0 0
1964 1 1 0.433743478261 15.135846974821083 14.943434132562107 8.286549138511003 0 0 0
1977 1 2 -0.192556521739 15.507228952282658 11.724227255504065 6.167102654318672 0 0 0
1989 1 2 -0.192556521739 11.921666647924217 15.345636773928417 6.130646792019115 0 0 0
2025 1 4 0.158343478261 14.824369392888457 12.468776815477604 6.492161133928458 0 0 0
2037 1 4 0.158343478261 12.681127517145596 14.62146853535398 6.401841797142082 0 0 0
2084 1 3 -0.602556521739 15.682352273156928 15.558830105202796 7.04402767932858 0 0 0
2118 1 5 0.157043478261 16.366893607441288 16.367186357334134 7.325548217556341 0 0 0
2130 1 5 0.157043478261 14.930485215769531 16.055647634685272 6.383667633323534 0 0 0
2154 1 5 0.157043478261 16.169928900403683 14.810285424495834 6.392420552837241 0 0 0
2169 1 6 -0.300956521739 16.704770495858995 11.677068043732337 6.784336622565242 0 0 0
2181 1 6 -0.300956521739 11.787257829143918 16.484353696797005 6.812792776462526 0 0 0
1038 1 1 0.433743478261 0.07313079021296358 10.688668327492715 10.495432658753005 0 0 0
949 1 2 -0.192556521739 3.363526323418225 2.2961067274370595 10.039869054851673 0 0 0
950 1 2 -0.192556521739 2.378288813139469 3.244201918845292 10.034587240444427 0 0 0
951 1 4 0.158343478261 4.115472704629086 1.9916730499845197 10.729180563668445 0 0 0
952 1 4 0.158343478261 2.1319999749978233 4.057234707966723 10.659972300801746 0 0 0
957 1 6 -0.300956521739 3.208695596770175 1.5837597597140036 8.919845533055362 0 0 0
958 1 6 -0.300956521739 1.697798494644086 3.106417600015019 8.895576089028198 0 0 0
1936 1 7 0.736043478261 4.444472875179332 8.571048891924558 16.72751364638637 0 0 0
1621 1 3 -0.602556521739 6.911551954491222 1.5079072620780933 10.046059222424347 0 0 0
1628 1 5 0.157043478261 6.925941682746567 2.2842185241384523 10.885244364800617 0 0 0
1629 1 5 0.157043478261 6.284149516620885 2.0478562379144147 9.22398607282128 0 0 0
1640 1 5 0.157043478261 7.983943360095964 1.526730780075127 9.617731531300237 0 0 0
1039 1 1 0.433743478261 0.21133273006643238 6.556347925605545 10.311187848793807 0 0 0
1070 1 3 -0.602556521739 1.5120194348358516 7.05749869380524 9.725629100552545 0 0 0
1075 1 5 0.157043478261 2.264814390711121 6.304624435478545 9.637862424921217 0 0 0
1078 1 5 0.157043478261 2.015835634482665 7.815586691404934 10.313700504196563 0 0 0
1087 1 5 0.157043478261 1.399598501675452 7.492822998159719 8.770144139057336 0 0 0
1603 1 2 -0.192556521739 6.932176311014501 3.0971771147054667 14.6469479003683 0 0 0
1606 1 2 -0.192556521739 6.8839431409452 2.1098287953315857 13.734509898786426 0 0 0
1615 1 4 0.158343478261 6.2795410925874 3.908962295405225 14.90658257786556 0 0 0
1618 1 4 0.158343478261 6.15612116724915 1.8161489707058536 13.008265080338433 0 0 0
1651 1 6 -0.300956521739 8.121351372476699 3.0043966089499485 15.280821970456428 0 0 0
1654 1 6 -0.300956521739 8.06723681631672 1.448340302805939 13.799765481214273 0 0 0
1050 1 2 -0.192556521739 2.457873121763819 6.806139232561268 13.560323434535404 0 0 0
1055 1 2 -0.192556521739 3.4690936818989337 6.81434793924738 14.499263604979513 0 0 0
1062 1 4 0.158343478261 2.118135761179369 6.087757343944499 12.830869905605674 0 0 0
1067 1 4 0.158343478261 4.260384862508348 6.1215953811114545 14.741182273589654 0 0 0
1098 1 6 -0.300956521739 1.8005641822657852 7.958534795951555 13.704348192949793 0 0 0
1103 1 6 -0.300956521739 3.3294827155169155 7.957588668523726 15.175993780476794 0 0 0
1952 1 1 0.433743478261 6.652427159757952 6.431056913005501 16.5732567189134 0 0 0
2072 1 3 -0.602556521739 7.120110873146181 6.851362586052009 15.205727562768201 0 0 0
2094 1 5 0.157043478261 6.543882540581941 7.64922533029311 14.79257983614835 0 0 0
2106 1 5 0.157043478261 7.149152187855295 6.08236439163221 14.473162852100206 0 0 0
2142 1 5 0.157043478261 8.098758518397707 7.256942620890782 15.242712673771388 0 0 0
1594 1 1 0.433743478261 15.143086003013192 2.101213309721571 8.389826318899443 0 0 0
1599 1 2 -0.192556521739 11.785093234646029 1.9231622992085948 10.550389728757256 0 0 0
1611 1 4 0.158343478261 12.546849514158115 2.609032442542382 10.256767694711527 0 0 0
1624 1 3 -0.602556521739 15.580436257179553 1.7019951529168993 9.76907150589602 0 0 0
1631 1 5 0.157043478261 14.751189101045046 1.4321911677110744 10.382140108711429 0 0 0
1637 1 5 0.157043478261 16.06381763751855 2.5146906254832264 10.287832640612327 0 0 0
1641 1 5 0.157043478261 16.28440793176774 0.9019396854672489 9.727621138627736 0 0 0
1647 1 6 -0.300956521739 11.754384180338866 0.7302032620046948 9.94090834439006 0 0 0
1979 1 2 -0.192556521739 15.46315055242917 5.320626725230952 10.548182486318236 0 0 0
2027 1 4 0.158343478261 14.786107096998744 4.542798033081118 10.295422216627669 0 0 0
2171 1 6 -0.300956521739 16.634975561006854 5.392498032159432 9.901689393589676 0 0 0
1666 1 7 0.736043478261 8.755061674914424 4.4202710353544425 0.011876369267116297 0 0 1
1595 1 1 0.433743478261 8.79611420948199 2.0360287777256363 14.731670665817099 0 0 0
1597 1 2 -0.192556521739 10.785457027017992 1.9345892162784593 11.475198596965154 0 0 0
1609 1 4 0.158343478261 10.402113707065748 2.6452804083932353 12.168704683563098 0 0 0
1625 1 3 -0.602556521739 10.151756156610261 1.5320511992394008 15.194371213042727 0 0 0
1633 1 5 0.157043478261 10.532753532943767 2.0573134185877215 16.04893115715026 0 0 0
1635 1 5 0.157043478261 10.86185347095403 1.6041464207171017 14.39726431249686 0 0 0
1643 1 5 0.157043478261 10.044165535841863 0.5178568911760845 15.531990262128389 0 0 0
1645 1 6 -0.300956521739 10.215588885288122 0.7058432457008106 11.420607610547732 0 0 0
1942 1 7 0.736043478261 8.73466785436308 4.248949219718761 16.694039780812837 0 0 0
1987 1 2 -0.192556521739 11.111953884867914 5.0974245300167995 15.081461786279705 0 0 0
2035 1 4 0.158343478261 10.85463308764531 4.3038314592617075 14.442492877289782 0 0 0
2179 1 6 -0.300956521739 10.32705137365281 5.3545931571895 16.148254418710152 0 0 0
1973 1 2 -0.192556521739 12.053946713495357 6.059362744582012 15.04720939689792 0 0 0
1981 1 2 -0.192556521739 15.450609111821143 6.332262468846359 11.470268711595544 0 0 0
2021 1 4 0.158343478261 12.881438919067962 6.2473145381777115 14.424484855430366 0 0 0
2029 1 4 0.158343478261 14.707175899263087 6.733895088034692 12.118508307230126 0 0 0
2080 1 3 -0.602556521739 15.71696485948855 6.946853217146485 15.188982749778893 0 0 0
2114 1 5 0.157043478261 15.7341832198339 6.213652222179987 14.382580297162331 0 0 0
2134 1 5 0.157043478261 15.121571456064729 6.509728634766643 15.97508368511345 0 0 0
2150 1 5 0.157043478261 16.737984070758454 7.009963088590001 15.590442851960368 0 0 0
2165 1 6 -0.300956521739 11.855466867658063 6.851811997559282 16.1429115767395 0 0 0
2173 1 6 -0.300956521739 16.644825187276908 6.934362303120015 11.386991191484068 0 0 0
1673 1 1 0.433743478261 10.881805293395772 6.55317069403013 0.06311411375381053 0 0 1
1045 1 2 -0.192556521739 1.9999095500643052 11.638968753855242 10.50239013534335 0 0 0
1057 1 4 0.158343478261 2.704146722979862 12.364801333482324 10.188453348583865 0 0 0
1073 1 3 -0.602556521739 1.9345738314055871 15.321345948400545 9.950801438262449 0 0 0
1081 1 5 0.157043478261 1.6053670989499127 16.343616326982847 10.031130074959977 0 0 0
1083 1 5 0.157043478261 2.738731779182513 15.160347790745512 10.67655873613061 0 0 0
1091 1 5 0.157043478261 1.110796003932913 14.717484410974743 10.379300522561245 0 0 0
1093 1 6 -0.300956521739 0.8355513630473432 11.591959182863993 9.842027099706678 0 0 0
1991 1 2 -0.192556521739 5.648080126029065 15.163537623194252 10.55592648760819 0 0 0
2039 1 4 0.158343478261 4.926169384262439 14.460455390925334 10.20603155071661 0 0 0
2183 1 6 -0.300956521739 5.683952028395577 16.39596097188742 9.985570536769167 0 0 0
1034 1 7 0.736043478261 0.1695988996011932 8.558756528230619 12.579418704795271 0 0 0
1042 1 1 0.433743478261 2.2945421830388986 8.624775393323674 14.724352469931477 0 0 0
1047 1 2 -0.192556521739 1.9744570099757102 10.69899092998812 11.500244722093901 0 0 0
1059 1 4 0.158343478261 2.6793741517701624 10.38157203636348 12.235403874092732 0 0 0
1072 1 3 -0.602556521739 1.8435450837338536 9.968584837628175 15.190449110649102 0 0 0
1079 1 5 0.157043478261 1.4745867269626771 10.561841602354077 14.379782508705755 0 0 0
1085 1 5 0.157043478261 2.6380716576002676 10.532731567059818 15.633024648428021 0 0 0
1089 1 5 0.157043478261 1.055204117936684 9.883722761558397 15.965127617683596 0 0 0
1095 1 6 -0.300956521739 0.8103882796257492 10.060131898785663 11.408622298527671 0 0 0
2220 3 9 0.04 4.308940259159755 0.6409100458084139 2.785932837840744 0 1 0
1975 1 2 -0.192556521739 5.703536371371423 10.677542047153652 14.941817577656877 0 0 0
2023 1 4 0.158343478261 5.0017242715697865 10.366858555981482 14.185986378034093 0 0 0
2167 1 6 -0.300956521739 5.701378456244729 10.093514262554766 16.134473286586772 0 0 0
1969 1 2 -0.192556521739 6.590845893632156 15.176093400535377 11.540868403558148 0 0 0
1985 1 2 -0.192556521739 6.696090208333861 11.665816284374888 14.992572857830643 0 0 0
2017 1 4 0.158343478261 6.948488313106199 14.470388549098233 12.240200707117614 0 0 0
2033 1 4 0.158343478261 7.03932028057655 12.41071638225516 14.27985842258478 0 0 0
2088 1 3 -0.602556521739 7.316850647842087 15.39479394727973 15.366479875816884 0 0 0
2122 1 5 0.157043478261 6.756813818324698 15.749632829919392 14.509993895385213 0 0 0
2126 1 5 0.157043478261 7.445201378300276 16.217089949950005 16.093120650272105 0 0 0
2158 1 5 0.157043478261 6.815059417756771 14.510103279497834 15.79564639470116 0 0 0
2161 1 6 -0.300956521739 7.182416928971689 16.408960553079478 11.486322710892567 0 0 0
2177 1 6 -0.300956521739 7.238424355248918 11.57975487983079 16.20876096765663 0 0 0
1968 1 1 0.433743478261 8.66512672048609 14.968000419426307 14.843761572059565 0 0 0
2208 1 6 -0.300956521739 14.266756617479981 9.037073269972735 15.273681650233513 0 0 0
2004 1 2 -0.192556521739 10.583661262667487 13.917280116433275 14.710418024665215 0 0 0
2008 1 2 -0.192556521739 10.560528757261633 14.869899986957524 13.757169012997746 0 0 0
1960 1 1 0.433743478261 15.240921340365094 8.305440488093407 14.73700766635669 0 0 0
1935 1 7 0.736043478261 13.027378827772166 8.419509175261481 16.790376969674572 0 0 0
2052 1 4 0.158343478261 11.252563730279551 13.164721232169159 15.031918449952846 0 0 0
2056 1 4 0.158343478261 11.234212923926902 15.23828858199487 13.026918420850734 0 0 0
2200 1 6 -0.300956521739 9.383116626176387 15.488488079741307 13.841116174274442 0 0 0
2196 1 6 -0.300956521739 9.406170509888026 13.958556579548683 15.329534456076523 0 0 0
2074 1 3 -0.602556521739 15.920600968453366 10.09914869450063 9.930435660883418 0 0 0
2100 1 5 0.157043478261 15.230745031178637 10.831503074146145 9.579326662743501 0 0 0
2104 1 5 0.157043478261 15.372550327463975 9.536794239310206 10.669445749961453 0 0 0
2148 1 5 0.157043478261 16.000553236578206 9.382313889861827 9.148561305099959 0 0 0
2066 1 3 -0.602556521739 10.35831296005029 15.573031666540007 10.080331995896186 0 0 0
2092 1 5 0.157043478261 10.19720072517564 14.807923855504303 10.798474236884383 0 0 0
2112 1 5 0.157043478261 10.981963285609854 15.116792952352386 9.344547332176194 0 0 0
2140 1 5 0.157043478261 9.423700414008003 15.634164008552611 9.592747431526433 0 0 0
2000 1 2 -0.192556521739 13.978001102014874 14.71036672059862 10.108769191303896 0 0 0
2012 1 2 -0.192556521739 14.930240754119554 13.753574867950766 10.093944825583177 0 0 0
2048 1 4 0.158343478261 13.209487044778948 14.9904044153377 10.784626999354096 0 0 0
2060 1 4 0.158343478261 15.173750516131713 12.932164870255866 10.729726562665142 0 0 0
2192 1 6 -0.300956521739 14.134667230202293 15.446169470054299 8.986699093161707 0 0 0
2204 1 6 -0.300956521739 15.65859115542527 13.939286856940573 8.975794145055632 0 0 0
1950 1 1 0.433743478261 10.878640787583677 10.558267429399347 16.7612943483424 0 0 0
2070 1 3 -0.602556521739 10.365974179460084 10.017374836077812 15.472516878304328 0 0 0
2096 1 5 0.157043478261 11.079525688281521 9.37669578728128 14.86111970029481 0 0 0
2108 1 5 0.157043478261 10.090136195918655 10.78268767854532 14.69035190544044 0 0 0
2144 1 5 0.157043478261 9.441195293927647 9.396362015719186 15.604013410167427 0 0 0
1996 1 2 -0.192556521739 15.101811847053165 10.17954067510287 13.639764653090284 0 0 0
2016 1 2 -0.192556521739 14.144556706438278 10.184940243812024 14.61209938972272 0 0 0
2044 1 4 0.158343478261 15.402612076773954 10.874488251861562 12.89286965413688 0 0 0
2064 1 4 0.158343478261 13.364558313697735 10.855820084608043 14.879983727514519 0 0 0
2188 1 6 -0.300956521739 15.776979191657137 9.040738883970684 13.765533352117162 0 0 0
1941 1 7 0.736043478261 8.805425418336503 12.771233700475848 16.86843943338428 0 0 0
1946 1 1 0.433743478261 10.824447168360843 16.93003428508228 10.543217644352415 0 0 0
1591 1 1 0.433743478261 6.464167215835526 0.13545729558599556 10.469283286204169 0 0 0
947 1 7 0.736043478261 4.409546806561267 0.028209662490232986 8.382656776255981 0 0 0
1526 1 2 -0.192556521739 6.45986562957362 1.8624209953774638 22.155150369736724 0 0 0
1536 1 4 0.158343478261 6.802191841717134 2.549640946159104 21.435462749010274 0 0 0
1566 1 6 -0.300956521739 7.128295874077215 0.6901849459121541 22.268278081715124 0 0 0
1626 1 3 -0.602556521739 7.213912076686887 1.7499510858306961 18.445488574955956 0 0 0
1634 1 5 0.157043478261 6.822271838069343 2.595877017884985 17.91010533416299 0 0 0
1636 1 5 0.157043478261 6.641739908328202 1.4836056903060293 19.318325402870585 0 0 0
1644 1 5 0.157043478261 7.258648344407571 0.8947127440130773 17.763818940540954 0 0 0
1988 1 2 -0.192556521739 6.601576896529381 5.430353251804068 18.51726831717127 0 0 0
2036 1 4 0.158343478261 6.952157833357623 4.722197455673041 19.231125250857513 0 0 0
2180 1 6 -0.300956521739 7.233106206674288 5.5103085243162155 17.32520432323898 0 0 0
974 1 2 -0.192556521739 1.8641564077286603 6.259585375689852 21.970042427930395 0 0 0
984 1 4 0.158343478261 2.4821439108722427 6.505002601832924 21.130620509617295 0 0 0
1014 1 6 -0.300956521739 0.8014717478156447 7.008710797686231 22.21919227360766 0 0 0
1071 1 3 -0.602556521739 1.8378166152565976 7.107044415211919 18.462259444648875 0 0 0
1080 1 5 0.157043478261 1.1939231133281105 6.62342135921127 19.11139382896206 0 0 0
1086 1 5 0.157043478261 2.6407927881092244 6.440828134402695 18.279462827588496 0 0 0
1090 1 5 0.157043478261 1.3304680864718743 7.179834413606783 17.53239439255207 0 0 0
1976 1 2 -0.192556521739 5.620029590596914 6.369027394057295 18.496074991768264 0 0 0
2024 1 4 0.158343478261 4.8456004445810485 6.626938135198642 19.160202488344655 0 0 0
2168 1 6 -0.300956521739 5.69491580378328 7.00927786133784 17.30484549572568 0 0 0
933 1 7 0.736043478261 0.2596313464292684 4.337909935413406 25.2918272987684 0 0 0
935 1 1 0.433743478261 2.3147110101292063 2.169632836575997 25.265816777049398 0 0 0
940 1 3 -0.602556521739 1.7924624107953966 1.6281872795530463 23.998626353957228 0 0 0
941 1 5 0.157043478261 2.5751565070766156 1.2271632132116903 23.37953122332149 0 0 0
942 1 5 0.157043478261 1.289554349207303 2.353330887777313 23.36094641581903 0 0 0
943 1 5 0.157043478261 1.1276717413861939 0.8430486502544697 24.206353180089923 0 0 0
972 1 2 -0.192556521739 1.8700775907087044 5.251581278472426 22.91040324690019 0 0 0
982 1 4 0.158343478261 2.53322801402801 4.417758426151794 23.097440915235374 0 0 0
1012 1 6 -0.300956521739 0.8112627354010941 5.454799218110704 23.69303390723596 0 0 0
1528 1 2 -0.192556521739 5.4853281693578575 1.857577501155033 23.105829777025196 0 0 0
1538 1 4 0.158343478261 4.711411869394366 2.500900629706966 23.388042559450717 0 0 0
1568 1 6 -0.300956521739 5.591466604395142 0.6973684337731976 23.780529381710007 0 0 0
1520 1 1 0.433743478261 6.572634262616779 0.2361078627904625 27.495409968868127 0 0 0
1041 1 1 0.433743478261 2.304482441753968 8.447347433681538 18.926917344092118 0 0 0
1596 1 1 0.433743478261 8.584771994441363 2.1237079559010397 18.87216289895754 0 0 0
1604 1 2 -0.192556521739 10.534203258096797 3.082148718341572 18.868544593752006 0 0 0
1605 1 2 -0.192556521739 10.491007861436538 2.2021828088585615 19.888398264620143 0 0 0
1616 1 4 0.158343478261 11.278548741836753 3.716263262507753 18.42955099880833 0 0 0
1617 1 4 0.158343478261 11.144264314995006 1.929683349155313 20.691490860822256 0 0 0
1652 1 6 -0.300956521739 9.340230438747803 3.0720657061748793 18.274384497285414 0 0 0
1653 1 6 -0.300956521739 9.295471213224358 1.6025438865076016 19.86740125545707 0 0 0
2069 1 3 -0.602556521739 10.31871135160641 6.8932927390604055 18.143267230541053 0 0 0
2095 1 5 0.157043478261 11.098377686069517 7.426512694391688 18.758919734155562 0 0 0
2105 1 5 0.157043478261 9.752785599639852 6.123317850391172 18.77193631472961 0 0 0
2143 1 5 0.157043478261 9.529814472521897 7.669749542119699 17.94863188199653 0 0 0
1993 1 2 -0.192556521739 14.902212243450622 6.768098885963758 20.15677792693746 0 0 0
2015 1 2 -0.192556521739 13.979392767856826 6.723931660272025 19.17096831010579 0 0 0
2041 1 4 0.158343478261 15.1570521124464 6.096195922055053 20.937748225278938 0 0 0
2063 1 4 0.158343478261 13.15502806786157 6.07940163779304 18.970637711767115 0 0 0
2185 1 6 -0.300956521739 15.674440544482465 7.852983169321489 19.932730989490405 0 0 0
2207 1 6 -0.300956521739 14.177852892923049 7.814929166717796 18.390066657257 0 0 0
1521 1 1 0.433743478261 10.738882500678853 0.21894854858295776 23.280729452549767 0 0 0
1546 1 3 -0.602556521739 10.309997676320052 1.5834810171798188 23.673674476886116 0 0 0
1550 1 5 0.157043478261 9.876160345393073 2.2670637015025012 22.89063395971365 0 0 0
1553 1 5 0.157043478261 11.089194293787722 2.2671463572557857 24.100294295874278 0 0 0
1560 1 5 0.157043478261 9.53745406456008 1.581588641252594 24.499900000038206 0 0 0
1523 1 1 0.433743478261 15.100131801659725 2.2135709114653572 25.509260269402404 0 0 0
1530 1 2 -0.192556521739 14.038464324460247 2.2464183889668106 23.637149985798576 0 0 0
1533 1 2 -0.192556521739 15.046956126994987 3.1961890798880677 23.59002801698804 0 0 0
1540 1 4 0.158343478261 13.241775218884982 1.9856115717635818 22.953917078079744 0 0 0
1543 1 4 0.158343478261 15.335396467939313 3.9309792161799044 22.846292874474553 0 0 0
1570 1 6 -0.300956521739 14.146188936847121 1.6040767350389458 24.812148453421823 0 0 0
1573 1 6 -0.300956521739 15.730221696288549 3.0887498714028365 24.74355920111423 0 0 0
1770 1 3 -0.602556521739 15.850461321001072 6.790451425476692 23.75699353163839 0 0 0
1786 1 5 0.157043478261 15.170709497934107 6.0227720921528505 24.10537052548331 0 0 0
1790 1 5 0.157043478261 15.275563462485527 7.3180398201068195 23.015853527706767 0 0 0
1822 1 5 0.157043478261 15.939694885135493 7.45455860891351 24.588290425807273 0 0 0