LAMMPS data file via write_data, version 22 Jul 2025, timestep = 0, units = real

52 atoms
2 atom types

-20 20 xlo xhi
-20 20 ylo yhi
-20 20 zlo zhi

Masses

1 1
2 1

Atoms # full

22 0 1 0.5 8.695220662604655 -19.426323603571543 -18.220805226927997 0 0 0
23 0 1 0.5 2.926551021135669 -13.45698777281539 -11.593497708250535 0 0 0
1 0 1 0.5 -14.782322605504804 -6.496030719250454 -18.788298442395543 0 0 0
2 0 2 -0.5 -12.159530125632664 -5.22282150817235 -19.961087852698327 0 0 0
46 0 2 -0.5 -6.895054013885119 -5.172811367163812 -19.440647922195797 0 0 0
19 0 1 0.5 12.425752818782698 -0.3723747191822042 -18.501905295300254 0 0 0
4 0 1 0.5 -19.1061207461665 3.4286191796085888 -15.197448318450455 0 0 0
7 0 1 0.5 -18.679979331176717 5.587380912894094 -12.888996988948898 0 0 0
10 0 1 0.5 -10.41690239236546 3.12149151373724 -17.092128618197577 0 0 0
44 0 2 -0.5 -16.804295143487067 10.211523412825319 -14.926000644884072 0 0 0
47 0 2 -0.5 -18.969628344741476 17.456409929998408 -10.11830651672478 0 0 0
20 0 1 0.5 -1.5222981113578662 14.735642408363354 -18.058042637099533 0 0 0
32 0 2 -0.5 8.487958623323571 17.12058219924596 -14.374977273109824 0 0 0
51 0 2 -0.5 8.409579651620973 19.805204793720137 -13.923031945677025 0 0 0
13 0 1 0.5 3.971385240541487 -12.928262219265225 -5.303119190644063 0 0 0
50 0 2 -0.5 3.176100413862663 -19.280344210229973 -4.7451413351786975 0 0 0
9 0 1 0.5 17.753685991165085 -13.799546488467392 -8.977831671469767 0 0 0
21 0 1 0.5 18.477398268169445 -10.367306876167333 -3.326667744352793 0 0 0
35 0 2 -0.5 11.041897233129433 -18.83320279365089 -9.63935289049491 0 0 0
18 0 1 0.5 -15.448768360283584 -7.4498312861890685 -9.314426979662118 0 0 0
33 0 2 -0.5 -0.2430291568129448 -4.59103855518207 -1.5849969450314525 0 0 0
15 0 1 0.5 5.557037529329321 -2.8702445620998027 -0.20035521136613355 0 0 0
34 0 2 -0.5 0.9563448563946153 -6.711998575698583 -8.560061766095489 0 0 0
40 0 2 -0.5 12.703945577472425 -4.786679420986529 -9.72102852059576 0 0 0
42 0 2 -0.5 -10.59791743317522 0.8017006240793023 -5.817611099135879 0 0 0
48 0 2 -0.5 -18.37762659340055 7.229844716950247 -7.999842217191981 0 0 0
52 0 2 -0.5 -4.397910993731539 4.309928354020197 -3.0341539825471813 0 0 0
6 0 1 0.5 0.9594601862875116 5.647350934169886 -4.972849406754992 0 0 0
25 0 1 0.5 18.221101685530087 2.056028704185053 -4.325568761828155 0 0 0
31 0 2 -0.5 13.865802136187348 2.5365029007832085 -8.995746536644058 0 0 0
27 0 1 0.5 -19.205553438144527 12.263365104917142 -9.622681657607986 0 0 0
37 0 2 -0.5 3.283070355319918 18.563461861835542 -3.896488130044421 0 0 0
17 0 1 0.5 -14.931921341890433 -0.8019931525001276 0.9010859303647152 0 0 0
29 0 2 -0.5 -16.267217358698705 -3.1221476491178137 6.0644612768965125 0 0 0
36 0 2 -0.5 -8.604030547944843 -7.941419308977862 8.565674009064992 0 0 0
3 0 1 0.5 19.64379755763514 -6.6944488262266155 6.398577609285049 0 0 0
11 0 1 0.5 12.594313953348582 -7.365386070388082 9.95631498748265 0 0 0
12 0 1 0.5 15.78599462089408 -4.788406633207764 1.2497156771131372 0 0 0
41 0 2 -0.5 18.673654347040532 8.108610710179715 1.4202059905138817 0 0 0
43 0 2 -0.5 -16.58974317674979 16.186428366315752 5.301552668819927 0 0 0
49 0 2 -0.5 -13.348144345613264 17.73798327787685 2.2849512762785693 0 0 0
16 0 1 0.5 -7.370037430604006 11.78090383847286 1.6508132133869502 0 0 0
45 0 2 -0.5 18.70716143339274 11.262211031868219 3.9808126091867706 0 0 0
38 0 2 -0.5 -8.276001656556502 -14.75984174514182 11.339789401432402 0 0 0
24 0 1 0.5 -11.915982566734767 8.08100088875787 17.38193735358395 0 0 0
26 0 1 0.5 -19.834180045795712 6.935970311488941 12.85302519465472 0 0 0
14 0 1 0.5 -9.524237154761439 6.146139924482505 18.173710777505164 0 0 0
30 0 2 -0.5 5.400680799689461 9.242200380769653 13.661799595533779 0 0 0
5 0 1 0.5 16.48611180320667 2.0810764944558393 16.65264231928282 0 0 0
8 0 1 0.5 14.627606735857022 6.1864095489431215 14.985289087046539 0 0 0
28 0 2 -0.5 -6.022641615021341 17.46237633631675 10.159084475673307 0 0 0
39 0 2 -0.5 -6.003540300765792 18.49816502933305 18.659648000569852 0 0 0

Velocities

22 0 0 0
23 0 0 0
1 0 0 0
2 0 0 0
46 0 0 0
19 0 0 0
4 0 0 0
7 0 0 0
10 0 0 0
44 0 0 0
47 0 0 0
20 0 0 0
32 0 0 0
51 0 0 0
13 0 0 0
50 0 0 0
9 0 0 0
21 0 0 0
35 0 0 0
18 0 0 0
33 0 0 0
15 0 0 0
34 0 0 0
40 0 0 0
42 0 0 0
48 0 0 0
52 0 0 0
6 0 0 0
25 0 0 0
31 0 0 0
27 0 0 0
37 0 0 0
17 0 0 0
29 0 0 0
36 0 0 0
3 0 0 0
11 0 0 0
12 0 0 0
41 0 0 0
43 0 0 0
49 0 0 0
16 0 0 0
45 0 0 0
38 0 0 0
24 0 0 0
26 0 0 0
14 0 0 0
30 0 0 0
5 0 0 0
8 0 0 0
28 0 0 0
39 0 0 0
