LAMMPS data file via write_data, version 29 Aug 2024, timestep = 1250000, units = real

2316 atoms
4 atom types
2920 bonds
2 bond types
5512 angles
3 angle types
7816 dihedrals
1 dihedral types

-0 40.18 xlo xhi
-1e-06 39.476001 ylo yhi
-0 26.284 zlo zhi

Masses

1 15.9994
2 28.085501
3 15.9994
4 12.011

Pair Coeffs # lj/cut/coul/long/intel

1 0 0
2 0.227143 4.21
3 0.159961 3.033
4 0.0558373 2.757

Bond Coeffs # harmonic/intel

1 0 0
2 1200 1.149

Angle Coeffs # harmonic/intel

1 0 0
2 0 0
3 147.705 180

Atoms # full

3 1 1 -0.55 8.025955 2.696211 8.215064 0 0 0
4 1 1 -0.55 7.979748 0.067109 8.313629 0 0 0
8 1 1 -0.55 5.84619 2.558045 1.393052 0 0 0
9 1 1 -0.55 4.086306 0.898079 0.361405 0 0 0
10 1 1 -0.55 5.898424 0.019738 2.055409 0 0 0
11 1 1 -0.55 2.159675 2.496857 1.160439 0 0 0
15 1 1 -0.55 4.421809 2.591599 8.484475 0 0 0
29 1 2 1.1 5.609128 1.057957 0.860801 0 0 0
30 1 2 1.1 2.503214 1.014533 0.63213 0 0 0
44 1 1 -0.55 3.421327 0.878341 4.146301 0 0 0
54 1 1 -0.55 0.178801 2.865957 2.8505 0 0 0
55 1 1 -0.55 2.649871 3.333748 3.604851 0 0 0
56 1 1 -0.55 1.480633 4.9345 1.88062 0 0 0
57 1 1 -0.55 3.582047 2.741608 5.994066 0 0 0
58 1 1 -0.55 5.20331 2.798848 3.929458 0 0 0
59 1 1 -0.55 4.132513 4.9345 7.331922 0 0 0
60 1 1 -0.55 6.075216 3.329801 6.574943 0 0 0
63 1 1 -0.55 7.680407 3.217294 3.161965 0 0 0
64 1 1 -0.55 5.793956 4.9345 2.514065 0 0 0
71 1 2 1.1 1.617245 3.406779 2.372131 0 0 0
72 1 2 1.1 3.712632 2.437643 4.417026 0 0 0
73 1 2 1.1 4.554403 3.398884 7.099308 0 0 0
74 1 2 1.1 7.664335 3.39691 6.811499 0 0 0
76 1 2 1.1 6.133477 3.379146 2.749306 0 0 0
236 1 1 -0.55 0.178801 7.003042 2.8505 0 0 0
237 1 1 -0.55 2.649871 6.535252 3.604851 0 0 0
238 1 1 -0.55 3.582047 7.127392 5.994066 0 0 0
239 1 1 -0.55 5.20331 7.070152 3.929458 0 0 0
240 1 1 -0.55 6.075216 6.539199 6.574943 0 0 0
242 1 1 -0.55 7.680407 6.651706 3.161965 0 0 0
249 1 2 1.1 1.617245 6.462221 2.372131 0 0 0
250 1 2 1.1 3.712632 7.431357 4.417026 0 0 0
251 1 2 1.1 4.554403 6.470117 7.099308 0 0 0
252 1 2 1.1 7.664335 6.47209 6.811499 0 0 0
254 1 2 1.1 6.133477 6.489854 2.749306 0 0 0
257 1 1 -0.55 8.025955 7.172789 8.215064 0 0 0
262 1 1 -0.55 5.84619 7.310955 1.393052 0 0 0
265 1 1 -0.55 2.159675 7.372143 1.160439 0 0 0
269 1 1 -0.55 4.421809 7.2774 8.484475 0 0 0
52 1 1 -0.55 8.582448 0.811232 3.721814 0 0 0
61 1 1 -0.55 8.140468 4.9345 6.840411 0 0 0
62 1 1 -0.55 8.419719 2.625154 5.618205 0 0 0
75 1 2 1.1 8.725087 2.380403 4.056935 0 0 0
84 1 1 -0.55 15.89119 7.310955 5.177948 0 0 0
87 1 1 -0.55 12.204675 7.372143 5.410562 0 0 0
130 1 1 -0.55 10.223801 7.003042 3.7205 0 0 0
131 1 1 -0.55 12.694871 6.535252 2.966149 0 0 0
132 1 1 -0.55 11.525633 4.9345 4.69038 0 0 0
133 1 1 -0.55 13.627047 7.127392 0.576934 0 0 0
134 1 1 -0.55 15.24831 7.070152 2.641542 0 0 0
140 1 1 -0.55 15.838956 4.9345 4.056935 0 0 0
147 1 2 1.1 11.662245 6.462221 4.198869 0 0 0
148 1 2 1.1 13.757632 7.431357 2.153974 0 0 0
158 1 1 -0.55 13.466327 0.878341 2.424699 0 0 0
168 1 1 -0.55 10.223801 2.865957 3.7205 0 0 0
169 1 1 -0.55 12.694871 3.333748 2.966149 0 0 0
170 1 1 -0.55 13.627047 2.741608 0.576934 0 0 0
171 1 1 -0.55 15.24831 2.798848 2.641542 0 0 0
181 1 2 1.1 11.662245 3.406779 4.198869 0 0 0
182 1 2 1.1 13.757632 2.437643 2.153974 0 0 0
194 1 1 -0.55 15.89119 2.558045 5.177948 0 0 0
195 1 1 -0.55 14.131306 0.898079 6.209595 0 0 0
196 1 1 -0.55 15.943424 0.019738 4.515591 0 0 0
197 1 1 -0.55 12.204675 2.496857 5.410562 0 0 0
198 1 1 -0.55 11.744614 0.730306 7.30301 0 0 0
211 1 2 1.1 15.654128 1.057957 5.710199 0 0 0
212 1 2 1.1 12.548214 1.014533 5.93887 0 0 0
241 1 1 -0.55 8.419719 7.243846 5.618205 0 0 0
253 1 2 1.1 8.725087 7.488597 4.056935 0 0 0
138 1 1 -0.55 18.46472 7.243846 0.952795 0 0 0
139 1 1 -0.55 17.725407 6.651706 3.409035 0 0 0
151 1 2 1.1 18.770086 7.488597 2.514065 0 0 0
152 1 2 1.1 16.178476 6.489854 3.821694 0 0 0
166 1 1 -0.55 18.627447 0.811232 2.849186 0 0 0
173 1 1 -0.55 18.46472 2.625154 0.952795 0 0 0
174 1 1 -0.55 17.725407 3.217294 3.409035 0 0 0
185 1 2 1.1 18.770086 2.380403 2.514065 0 0 0
186 1 2 1.1 16.178476 3.379146 3.821694 0 0 0
191 1 1 -0.55 16.65461 0.759913 6.936347 0 0 0
210 1 2 1.1 16.592331 0.663197 8.5423 0 0 0
21 1 1 -0.55 5.912487 14.8035 0.760922 0 0 0
23 1 1 -0.55 1.904532 14.8035 0.269411 0 0 0
222 1 1 -0.55 2.260125 11.335533 3.953114 0 0 0
223 1 1 -0.55 2.019045 12.56521 1.644064 0 0 0
224 1 1 -0.55 2.065252 9.93611 1.742629 0 0 0
225 1 1 -0.55 3.43539 10.628913 6.205652 0 0 0
226 1 1 -0.55 3.421327 8.990659 4.146301 0 0 0
227 1 1 -0.55 4.879861 11.177629 4.081905 0 0 0
228 1 1 -0.55 4.19881 12.427045 7.964052 0 0 0
229 1 1 -0.55 5.958694 10.767079 6.932405 0 0 0
230 1 1 -0.55 4.146576 9.888738 8.626409 0 0 0
231 1 1 -0.55 7.885325 12.365857 7.731439 0 0 0
233 1 1 -0.55 7.431291 11.410538 3.508914 0 0 0
235 1 1 -0.55 5.623191 12.460599 1.913475 0 0 0
243 1 2 1.1 1.579074 11.272372 2.494352 0 0 0
244 1 2 1.1 3.497669 10.532197 4.5997 0 0 0
245 1 2 1.1 4.435872 10.926957 7.431801 0 0 0
246 1 2 1.1 7.541786 10.883533 7.20313 0 0 0
248 1 2 1.1 5.958694 11.225 2.887297 0 0 0
258 1 1 -0.55 7.979748 9.80189 8.313629 0 0 0
263 1 1 -0.55 4.086306 8.970921 0.361405 0 0 0
264 1 1 -0.55 5.898424 9.849262 2.055409 0 0 0
274 1 1 -0.55 3.969784 13.198801 0.003943 0 0 0
279 1 2 1.1 5.609128 8.811043 0.860801 0 0 0
280 1 2 1.1 2.503214 8.854466 0.63213 0 0 0
285 1 2 1.1 5.490597 13.267883 0.528308 0 0 0
286 1 2 1.1 2.380665 13.26591 0.240499 0 0 0
18 1 1 -0.55 8.564367 14.8035 8.45162 0 0 0
85 1 1 -0.55 14.131306 8.970921 6.209595 0 0 0
86 1 1 -0.55 15.943424 9.849262 4.515591 0 0 0
88 1 1 -0.55 11.744614 9.138694 7.30301 0 0 0
97 1 1 -0.55 15.957487 14.8035 5.810078 0 0 0
98 1 1 -0.55 14.014784 13.198801 6.567058 0 0 0
99 1 1 -0.55 11.949532 14.8035 6.301589 0 0 0
100 1 1 -0.55 11.670281 12.494154 7.523795 0 0 0
105 1 2 1.1 15.654128 8.811043 5.710199 0 0 0
106 1 2 1.1 12.548214 8.854466 5.93887 0 0 0
111 1 2 1.1 15.535597 13.267883 6.042692 0 0 0
112 1 2 1.1 12.425665 13.26591 6.330502 0 0 0
115 1 1 -0.55 10.020892 11.248686 3.918944 0 0 0
116 1 1 -0.55 12.305125 11.335533 2.617886 0 0 0
117 1 1 -0.55 12.064045 12.56521 4.926936 0 0 0
118 1 1 -0.55 12.110252 9.93611 4.828371 0 0 0
119 1 1 -0.55 13.48039 10.628913 0.365348 0 0 0
120 1 1 -0.55 13.466327 8.990659 2.424699 0 0 0
121 1 1 -0.55 14.924861 11.177629 2.489095 0 0 0
129 1 1 -0.55 15.668191 12.460599 4.657525 0 0 0
141 1 2 1.1 11.624074 11.272372 4.076648 0 0 0
142 1 2 1.1 13.542669 10.532197 1.9713 0 0 0
146 1 2 1.1 16.003695 11.225 3.683703 0 0 0
232 1 1 -0.55 8.345386 10.599306 5.838991 0 0 0
234 1 1 -0.55 8.582448 9.057768 3.721814 0 0 0
247 1 2 1.1 8.596511 10.579568 4.248808 0 0 0
81 1 1 -0.55 16.65461 9.109087 6.936347 0 0 0
95 1 1 -0.55 16.507954 12.610608 7.147934 0 0 0
104 1 2 1.1 16.592331 9.205803 8.5423 0 0 0
110 1 2 1.1 16.377369 12.306643 8.724974 0 0 0
126 1 1 -0.55 18.390387 10.599306 0.732009 0 0 0
127 1 1 -0.55 17.476292 11.410538 3.062086 0 0 0
128 1 1 -0.55 18.627447 9.057768 2.849186 0 0 0
145 1 2 1.1 18.641512 10.579568 2.322191 0 0 0
221 1 1 -0.55 20.065891 11.248686 2.652056 0 0 0
22 1 1 -0.55 3.969784 16.408199 0.003943 0 0 0
35 1 2 1.1 5.490597 16.339117 0.528308 0 0 0
36 1 2 1.1 2.380665 16.341089 0.240499 0 0 0
40 1 1 -0.55 2.260125 18.271467 3.953114 0 0 0
41 1 1 -0.55 2.019045 17.04179 1.644064 0 0 0
42 1 1 -0.55 2.065252 19.670891 1.742629 0 0 0
43 1 1 -0.55 3.43539 18.978086 6.205652 0 0 0
45 1 1 -0.55 4.879861 18.429371 4.081905 0 0 0
46 1 1 -0.55 4.19881 17.179955 7.964052 0 0 0
47 1 1 -0.55 5.958694 18.839922 6.932405 0 0 0
48 1 1 -0.55 4.146576 19.718262 8.626409 0 0 0
49 1 1 -0.55 7.885325 17.241142 7.731439 0 0 0
51 1 1 -0.55 7.431291 18.196463 3.508914 0 0 0
53 1 1 -0.55 5.623191 17.1464 1.913475 0 0 0
65 1 2 1.1 1.579074 18.334629 2.494352 0 0 0
66 1 2 1.1 3.497669 19.074802 4.5997 0 0 0
67 1 2 1.1 4.435872 18.680042 7.431801 0 0 0
68 1 2 1.1 7.541786 18.723467 7.20313 0 0 0
70 1 2 1.1 5.958694 18.382 2.887297 0 0 0
50 1 1 -0.55 8.345386 19.007694 5.838991 0 0 0
69 1 2 1.1 8.596511 19.027431 4.248808 0 0 0
153 1 1 -0.55 10.020892 18.358315 3.918944 0 0 0
154 1 1 -0.55 12.305125 18.271467 2.617886 0 0 0
155 1 1 -0.55 12.064045 17.04179 4.926936 0 0 0
156 1 1 -0.55 12.110252 19.670891 4.828371 0 0 0
157 1 1 -0.55 13.48039 18.978086 0.365348 0 0 0
159 1 1 -0.55 14.924861 18.429371 2.489095 0 0 0
167 1 1 -0.55 15.668191 17.1464 4.657525 0 0 0
175 1 2 1.1 11.624074 18.334629 4.076648 0 0 0
176 1 2 1.1 13.542669 19.074802 1.9713 0 0 0
180 1 2 1.1 16.003695 18.382 3.683703 0 0 0
206 1 1 -0.55 14.014784 16.408199 6.567058 0 0 0
207 1 1 -0.55 11.670281 17.112846 7.523795 0 0 0
217 1 2 1.1 15.535597 16.339117 6.042692 0 0 0
218 1 2 1.1 12.425665 16.341089 6.330502 0 0 0
39 1 1 -0.55 20.065891 18.358315 2.652056 0 0 0
164 1 1 -0.55 18.390387 19.007694 0.732009 0 0 0
165 1 1 -0.55 17.476292 18.196463 3.062086 0 0 0
179 1 2 1.1 18.641512 19.027431 2.322191 0 0 0
204 1 1 -0.55 16.507954 16.996391 7.147934 0 0 0
216 1 2 1.1 16.377369 17.300358 8.724974 0 0 0
2 1 1 -0.55 7.784875 1.466533 10.524114 0 0 0
5 1 1 -0.55 6.60961 0.759913 12.776652 0 0 0
7 1 1 -0.55 5.165139 1.308629 10.652905 0 0 0
12 1 1 -0.55 1.699614 0.730306 12.40999 0 0 0
13 1 1 -0.55 2.613709 1.541538 10.079914 0 0 0
28 1 2 1.1 6.547331 0.663197 11.1707 0 0 0
31 1 2 1.1 1.448489 0.710568 10.819809 0 0 0
32 1 2 1.1 4.086306 1.356001 9.458298 0 0 0
187 1 1 -0.55 0.024108 1.379686 10.489944 0 0 0
1 1 1 -0.55 10.069108 1.379686 9.223056 0 0 0
27 1 2 1.1 8.465926 1.403372 9.065351 0 0 0
91 1 1 -0.55 14.466809 7.2774 11.228525 0 0 0
135 1 1 -0.55 14.177513 4.9345 12.381078 0 0 0
149 1 2 1.1 14.599403 6.470117 12.613691 0 0 0
183 1 2 1.1 14.599403 3.398884 12.613691 0 0 0
193 1 1 -0.55 15.210139 1.308629 9.060095 0 0 0
199 1 1 -0.55 12.658709 1.541538 9.633086 0 0 0
201 1 1 -0.55 14.466809 2.591599 11.228525 0 0 0
213 1 2 1.1 11.493489 0.710568 8.893191 0 0 0
214 1 2 1.1 14.131306 1.356001 10.254703 0 0 0
79 1 1 -0.55 18.070955 7.172789 11.497936 0 0 0
136 1 1 -0.55 16.120216 6.539199 13.138058 0 0 0
137 1 1 -0.55 18.185469 4.9345 12.872589 0 0 0
150 1 2 1.1 17.709335 6.47209 12.901502 0 0 0
172 1 1 -0.55 16.120216 3.329801 13.138058 0 0 0
184 1 2 1.1 17.709335 3.39691 12.901502 0 0 0
188 1 1 -0.55 17.829876 1.466533 9.188887 0 0 0
189 1 1 -0.55 18.070955 2.696211 11.497936 0 0 0
190 1 1 -0.55 18.024748 0.067109 11.399371 0 0 0
209 1 2 1.1 18.510925 1.403372 10.647649 0 0 0
26 1 1 -0.55 4.251044 14.8035 9.085065 0 0 0
77 1 1 -0.55 0.024108 8.489314 10.489944 0 0 0
256 1 1 -0.55 7.784875 8.402467 10.524114 0 0 0
259 1 1 -0.55 6.60961 9.109087 12.776652 0 0 0
260 1 1 -0.55 6.623673 10.747341 10.717301 0 0 0
261 1 1 -0.55 5.165139 8.56037 10.652905 0 0 0
266 1 1 -0.55 1.699614 9.138694 12.40999 0 0 0
267 1 1 -0.55 2.613709 8.327462 10.079914 0 0 0
268 1 1 -0.55 1.462552 10.680232 10.292814 0 0 0
271 1 1 -0.55 7.395129 13.202748 10.175851 0 0 0
272 1 1 -0.55 6.462953 12.610608 12.565066 0 0 0
273 1 1 -0.55 4.84169 12.667849 10.500458 0 0 0
275 1 1 -0.55 1.625281 12.494154 12.189205 0 0 0
276 1 1 -0.55 2.364593 13.086294 9.732965 0 0 0
278 1 2 1.1 6.547331 9.205803 11.1707 0 0 0
281 1 2 1.1 1.448489 9.158432 10.819809 0 0 0
282 1 2 1.1 4.086306 8.513 9.458298 0 0 0
284 1 2 1.1 6.332368 12.306643 10.988027 0 0 0
287 1 2 1.1 1.319913 12.249403 10.627935 0 0 0
288 1 2 1.1 3.911523 13.248146 9.320307 0 0 0
83 1 1 -0.55 15.210139 8.56037 9.060095 0 0 0
89 1 1 -0.55 12.658709 8.327462 9.633086 0 0 0
90 1 1 -0.55 11.507552 10.680232 9.420186 0 0 0
96 1 1 -0.55 14.88669 12.667849 9.212542 0 0 0
101 1 1 -0.55 12.409593 13.086294 9.980035 0 0 0
102 1 1 -0.55 14.296044 14.8035 10.627935 0 0 0
107 1 2 1.1 11.493489 9.158432 8.893191 0 0 0
108 1 2 1.1 14.131306 8.513 10.254703 0 0 0
113 1 2 1.1 11.364913 12.249403 9.085065 0 0 0
114 1 2 1.1 13.956523 13.248146 10.392694 0 0 0
122 1 1 -0.55 14.24381 12.427045 11.748948 0 0 0
123 1 1 -0.55 16.003695 10.767079 12.780595 0 0 0
124 1 1 -0.55 14.191576 9.888738 11.086591 0 0 0
143 1 2 1.1 14.480872 10.926957 12.281199 0 0 0
255 1 1 -0.55 10.069108 8.489314 9.223056 0 0 0
270 1 1 -0.55 9.866199 12.734958 9.4215 0 0 0
277 1 2 1.1 8.465926 8.465629 9.065351 0 0 0
283 1 2 1.1 8.427755 13.275779 8.943131 0 0 0
78 1 1 -0.55 17.829876 8.402467 9.188887 0 0 0
80 1 1 -0.55 18.024748 9.80189 11.399371 0 0 0
82 1 1 -0.55 16.668673 10.747341 8.995699 0 0 0
92 1 1 -0.55 19.9112 12.734958 10.2915 0 0 0
93 1 1 -0.55 17.440128 13.202748 9.537149 0 0 0
94 1 1 -0.55 18.609367 14.8035 11.26138 0 0 0
103 1 2 1.1 18.510925 8.465629 10.647649 0 0 0
109 1 2 1.1 18.472755 13.275779 10.769869 0 0 0
125 1 1 -0.55 17.930325 12.365857 11.981562 0 0 0
144 1 2 1.1 17.586786 10.883533 12.50987 0 0 0
6 1 1 -0.55 6.623673 18.859659 10.717301 0 0 0
14 1 1 -0.55 1.462552 18.926767 10.292814 0 0 0
17 1 1 -0.55 7.395129 16.404251 10.175851 0 0 0
19 1 1 -0.55 6.462953 16.996391 12.565066 0 0 0
20 1 1 -0.55 4.84169 16.939152 10.500458 0 0 0
24 1 1 -0.55 1.625281 17.112846 12.189205 0 0 0
25 1 1 -0.55 2.364593 16.520706 9.732965 0 0 0
34 1 2 1.1 6.332368 17.300358 10.988027 0 0 0
37 1 2 1.1 1.319913 17.357597 10.627935 0 0 0
38 1 2 1.1 3.911523 16.358854 9.320307 0 0 0
208 1 1 -0.55 12.409593 16.520706 9.980035 0 0 0
220 1 2 1.1 13.956523 16.358854 10.392694 0 0 0
219 1 2 1.1 11.364913 17.357597 9.085065 0 0 0
16 1 1 -0.55 9.866199 16.872042 9.4215 0 0 0
33 1 2 1.1 8.427755 16.331221 8.943131 0 0 0
160 1 1 -0.55 14.24381 17.179955 11.748948 0 0 0
161 1 1 -0.55 16.003695 18.839922 12.780595 0 0 0
162 1 1 -0.55 14.191576 19.718262 11.086591 0 0 0
177 1 2 1.1 14.480872 18.680042 12.281199 0 0 0
200 1 1 -0.55 11.507552 18.926767 9.420186 0 0 0
205 1 1 -0.55 14.88669 16.939152 9.212542 0 0 0
192 1 1 -0.55 16.668673 18.859659 8.995699 0 0 0
202 1 1 -0.55 19.9112 16.872042 10.2915 0 0 0
215 1 2 1.1 18.472755 16.331221 10.769869 0 0 0
178 1 2 1.1 17.586786 18.723467 12.50987 0 0 0
203 1 1 -0.55 17.440128 16.404251 9.537149 0 0 0
163 1 1 -0.55 17.930325 17.241142 11.981562 0 0 0
296 1 1 -0.55 5.84619 2.558045 14.535052 0 0 0
297 1 1 -0.55 4.086306 0.898079 13.503405 0 0 0
298 1 1 -0.55 5.898424 0.019738 15.197409 0 0 0
299 1 1 -0.55 2.159675 2.496857 14.302439 0 0 0
317 1 2 1.1 5.609128 1.057957 14.002801 0 0 0
318 1 2 1.1 2.503214 1.014533 13.77413 0 0 0
332 1 1 -0.55 3.421327 0.878341 17.288301 0 0 0
342 1 1 -0.55 0.178801 2.865957 15.992499 0 0 0
343 1 1 -0.55 2.649871 3.333748 16.746851 0 0 0
344 1 1 -0.55 1.480633 4.9345 15.02262 0 0 0
346 1 1 -0.55 5.20331 2.798848 17.071459 0 0 0
351 1 1 -0.55 7.680407 3.217294 16.303965 0 0 0
352 1 1 -0.55 5.793956 4.9345 15.656065 0 0 0
359 1 2 1.1 1.617245 3.406779 15.514131 0 0 0
364 1 2 1.1 6.133477 3.379146 15.891306 0 0 0
524 1 1 -0.55 0.178801 7.003042 15.992499 0 0 0
525 1 1 -0.55 2.649871 6.535252 16.746851 0 0 0
527 1 1 -0.55 5.20331 7.070152 17.071459 0 0 0
530 1 1 -0.55 7.680407 6.651706 16.303965 0 0 0
537 1 2 1.1 1.617245 6.462221 15.514131 0 0 0
542 1 2 1.1 6.133477 6.489854 15.891306 0 0 0
550 1 1 -0.55 5.84619 7.310955 14.535052 0 0 0
553 1 1 -0.55 2.159675 7.372143 14.302439 0 0 0
340 1 1 -0.55 8.582448 0.811232 16.863815 0 0 0
363 1 2 1.1 8.725087 2.380403 17.198935 0 0 0
418 1 1 -0.55 10.223801 7.003042 16.862501 0 0 0
419 1 1 -0.55 12.694871 6.535252 16.108149 0 0 0
421 1 1 -0.55 13.627047 7.127392 13.718934 0 0 0
422 1 1 -0.55 15.24831 7.070152 15.783542 0 0 0
428 1 1 -0.55 15.838956 4.9345 17.198935 0 0 0
435 1 2 1.1 11.662245 6.462221 17.34087 0 0 0
436 1 2 1.1 13.757632 7.431357 15.295974 0 0 0
446 1 1 -0.55 13.466327 0.878341 15.566699 0 0 0
456 1 1 -0.55 10.223801 2.865957 16.862501 0 0 0
457 1 1 -0.55 12.694871 3.333748 16.108149 0 0 0
458 1 1 -0.55 13.627047 2.741608 13.718934 0 0 0
459 1 1 -0.55 15.24831 2.798848 15.783542 0 0 0
469 1 2 1.1 11.662245 3.406779 17.34087 0 0 0
470 1 2 1.1 13.757632 2.437643 15.295974 0 0 0
541 1 2 1.1 8.725087 7.488597 17.198935 0 0 0
426 1 1 -0.55 18.46472 7.243846 14.094795 0 0 0
427 1 1 -0.55 17.725407 6.651706 16.551035 0 0 0
439 1 2 1.1 18.770086 7.488597 15.656065 0 0 0
440 1 2 1.1 16.178476 6.489854 16.963694 0 0 0
454 1 1 -0.55 18.627447 0.811232 15.991185 0 0 0
461 1 1 -0.55 18.46472 2.625154 14.094795 0 0 0
462 1 1 -0.55 17.725407 3.217294 16.551035 0 0 0
473 1 2 1.1 18.770086 2.380403 15.656065 0 0 0
474 1 2 1.1 16.178476 3.379146 16.963694 0 0 0
309 1 1 -0.55 5.912487 14.8035 13.902922 0 0 0
311 1 1 -0.55 1.904532 14.8035 13.411411 0 0 0
510 1 1 -0.55 2.260125 11.335533 17.095114 0 0 0
511 1 1 -0.55 2.019045 12.56521 14.786064 0 0 0
512 1 1 -0.55 2.065252 9.93611 14.884629 0 0 0
514 1 1 -0.55 3.421327 8.990659 17.288301 0 0 0
515 1 1 -0.55 4.879861 11.177629 17.223906 0 0 0
521 1 1 -0.55 7.431291 11.410538 16.650913 0 0 0
523 1 1 -0.55 5.623191 12.460599 15.055475 0 0 0
531 1 2 1.1 1.579074 11.272372 15.636352 0 0 0
536 1 2 1.1 5.958694 11.225 16.029297 0 0 0
551 1 1 -0.55 4.086306 8.970921 13.503405 0 0 0
552 1 1 -0.55 5.898424 9.849262 15.197409 0 0 0
562 1 1 -0.55 3.969784 13.198801 13.145943 0 0 0
567 1 2 1.1 5.609128 8.811043 14.002801 0 0 0
568 1 2 1.1 2.503214 8.854466 13.77413 0 0 0
573 1 2 1.1 5.490597 13.267883 13.670308 0 0 0
574 1 2 1.1 2.380665 13.26591 13.382499 0 0 0
2312 4 4 0.6512 6.433224368747716 15.196842968287301 17.58672083397628 -2 -2 0
2311 4 3 -0.3256 6.528947401457573 15.634006389853162 18.678730469499783 -2 -2 0
403 1 1 -0.55 10.020892 11.248686 17.060944 0 0 0
404 1 1 -0.55 12.305125 11.335533 15.759887 0 0 0
407 1 1 -0.55 13.48039 10.628913 13.507348 0 0 0
408 1 1 -0.55 13.466327 8.990659 15.566699 0 0 0
409 1 1 -0.55 14.924861 11.177629 15.631095 0 0 0
429 1 2 1.1 11.624074 11.272372 17.218649 0 0 0
430 1 2 1.1 13.542669 10.532197 15.1133 0 0 0
434 1 2 1.1 16.003695 11.225 16.825703 0 0 0
522 1 1 -0.55 8.582448 9.057768 16.863815 0 0 0
535 1 2 1.1 8.596511 10.579568 17.390808 0 0 0
2313 4 3 -0.3256 6.285995108796529 14.800299450161226 16.540043117142815 -2 -2 0
414 1 1 -0.55 18.390387 10.599306 13.874009 0 0 0
415 1 1 -0.55 17.476292 11.410538 16.204086 0 0 0
416 1 1 -0.55 18.627447 9.057768 15.991185 0 0 0
433 1 2 1.1 18.641512 10.579568 15.464191 0 0 0
509 1 1 -0.55 20.065891 11.248686 15.794056 0 0 0
310 1 1 -0.55 3.969784 16.408199 13.145943 0 0 0
323 1 2 1.1 5.490597 16.339117 13.670308 0 0 0
324 1 2 1.1 2.380665 16.341089 13.382499 0 0 0
328 1 1 -0.55 2.260125 18.271467 17.095114 0 0 0
329 1 1 -0.55 2.019045 17.04179 14.786064 0 0 0
330 1 1 -0.55 2.065252 19.670891 14.884629 0 0 0
333 1 1 -0.55 4.879861 18.429371 17.223906 0 0 0
339 1 1 -0.55 7.431291 18.196463 16.650913 0 0 0
341 1 1 -0.55 5.623191 17.1464 15.055475 0 0 0
353 1 2 1.1 1.579074 18.334629 15.636352 0 0 0
358 1 2 1.1 5.958694 18.382 16.029297 0 0 0
357 1 2 1.1 8.596511 19.027431 17.390808 0 0 0
441 1 1 -0.55 10.020892 18.358315 17.060944 0 0 0
442 1 1 -0.55 12.305125 18.271467 15.759887 0 0 0
445 1 1 -0.55 13.48039 18.978086 13.507348 0 0 0
447 1 1 -0.55 14.924861 18.429371 15.631095 0 0 0
463 1 2 1.1 11.624074 18.334629 17.218649 0 0 0
464 1 2 1.1 13.542669 19.074802 15.1133 0 0 0
468 1 2 1.1 16.003695 18.382 16.825703 0 0 0
327 1 1 -0.55 20.065891 18.358315 15.794056 0 0 0
452 1 1 -0.55 18.390387 19.007694 13.874009 0 0 0
453 1 1 -0.55 17.476292 18.196463 16.204086 0 0 0
467 1 2 1.1 18.641512 19.027431 15.464191 0 0 0
290 1 1 -0.55 7.784875 1.466533 23.666113 0 0 0
291 1 1 -0.55 8.025955 2.696211 21.357063 0 0 0
292 1 1 -0.55 7.979748 0.067109 21.455629 0 0 0
293 1 1 -0.55 6.60961 0.759913 25.918652 0 0 0
295 1 1 -0.55 5.165139 1.308629 23.794905 0 0 0
300 1 1 -0.55 1.699614 0.730306 25.551991 0 0 0
301 1 1 -0.55 2.613709 1.541538 23.221914 0 0 0
303 1 1 -0.55 4.421809 2.591599 21.626474 0 0 0
316 1 2 1.1 6.547331 0.663197 24.3127 0 0 0
319 1 2 1.1 1.448489 0.710568 23.961809 0 0 0
320 1 2 1.1 4.086306 1.356001 22.600298 0 0 0
345 1 1 -0.55 3.582047 2.741608 19.136066 0 0 0
347 1 1 -0.55 4.132513 4.9345 20.473923 0 0 0
348 1 1 -0.55 6.075216 3.329801 19.716942 0 0 0
360 1 2 1.1 3.712632 2.437643 17.559027 0 0 0
361 1 2 1.1 4.554403 3.398884 20.241308 0 0 0
362 1 2 1.1 7.664335 3.39691 19.953499 0 0 0
475 1 1 -0.55 0.024108 1.379686 23.631945 0 0 0
526 1 1 -0.55 3.582047 7.127392 19.136066 0 0 0
528 1 1 -0.55 6.075216 6.539199 19.716942 0 0 0
538 1 2 1.1 3.712632 7.431357 17.559027 0 0 0
539 1 2 1.1 4.554403 6.470117 20.241308 0 0 0
540 1 2 1.1 7.664335 6.47209 19.953499 0 0 0
545 1 1 -0.55 8.025955 7.172789 21.357063 0 0 0
557 1 1 -0.55 4.421809 7.2774 21.626474 0 0 0
289 1 1 -0.55 10.069108 1.379686 22.365055 0 0 0
315 1 2 1.1 8.465926 1.403372 22.207352 0 0 0
349 1 1 -0.55 8.140468 4.9345 19.98241 0 0 0
350 1 1 -0.55 8.419719 2.625154 18.760204 0 0 0
372 1 1 -0.55 15.89119 7.310955 18.319948 0 0 0
375 1 1 -0.55 12.204675 7.372143 18.552561 0 0 0
379 1 1 -0.55 14.466809 7.2774 24.370525 0 0 0
420 1 1 -0.55 11.525633 4.9345 17.83238 0 0 0
423 1 1 -0.55 14.177513 4.9345 25.523079 0 0 0
437 1 2 1.1 14.599403 6.470117 25.755692 0 0 0
471 1 2 1.1 14.599403 3.398884 25.755692 0 0 0
481 1 1 -0.55 15.210139 1.308629 22.202095 0 0 0
482 1 1 -0.55 15.89119 2.558045 18.319948 0 0 0
483 1 1 -0.55 14.131306 0.898079 19.351595 0 0 0
484 1 1 -0.55 15.943424 0.019738 17.657591 0 0 0
485 1 1 -0.55 12.204675 2.496857 18.552561 0 0 0
486 1 1 -0.55 11.744614 0.730306 20.445009 0 0 0
487 1 1 -0.55 12.658709 1.541538 22.775085 0 0 0
489 1 1 -0.55 14.466809 2.591599 24.370525 0 0 0
499 1 2 1.1 15.654128 1.057957 18.8522 0 0 0
500 1 2 1.1 12.548214 1.014533 19.08087 0 0 0
501 1 2 1.1 11.493489 0.710568 22.035191 0 0 0
502 1 2 1.1 14.131306 1.356001 23.396702 0 0 0
529 1 1 -0.55 8.419719 7.243846 18.760204 0 0 0
367 1 1 -0.55 18.070955 7.172789 24.639936 0 0 0
424 1 1 -0.55 16.120216 6.539199 26.280058 0 0 0
425 1 1 -0.55 18.185469 4.9345 26.014589 0 0 0
438 1 2 1.1 17.709335 6.47209 26.043501 0 0 0
460 1 1 -0.55 16.120216 3.329801 26.280058 0 0 0
472 1 2 1.1 17.709335 3.39691 26.043501 0 0 0
476 1 1 -0.55 17.829876 1.466533 22.330887 0 0 0
477 1 1 -0.55 18.070955 2.696211 24.639936 0 0 0
478 1 1 -0.55 18.024748 0.067109 24.54137 0 0 0
479 1 1 -0.55 16.65461 0.759913 20.078348 0 0 0
497 1 2 1.1 18.510925 1.403372 23.789648 0 0 0
498 1 2 1.1 16.592331 0.663197 21.684299 0 0 0
314 1 1 -0.55 4.251044 14.8035 22.227064 0 0 0
365 1 1 -0.55 0.024108 8.489314 23.631945 0 0 0
513 1 1 -0.55 3.43539 10.628913 19.347652 0 0 0
516 1 1 -0.55 4.19881 12.427045 21.106052 0 0 0
517 1 1 -0.55 5.958694 10.767079 20.074406 0 0 0
518 1 1 -0.55 4.146576 9.888738 21.76841 0 0 0
519 1 1 -0.55 7.885325 12.365857 20.873438 0 0 0
532 1 2 1.1 3.497669 10.532197 17.741699 0 0 0
533 1 2 1.1 4.435872 10.926957 20.573801 0 0 0
534 1 2 1.1 7.541786 10.883533 20.345131 0 0 0
544 1 1 -0.55 7.784875 8.402467 23.666113 0 0 0
546 1 1 -0.55 7.979748 9.80189 21.455629 0 0 0
547 1 1 -0.55 6.60961 9.109087 25.918652 0 0 0
548 1 1 -0.55 6.623673 10.747341 23.859301 0 0 0
549 1 1 -0.55 5.165139 8.56037 23.794905 0 0 0
554 1 1 -0.55 1.699614 9.138694 25.551991 0 0 0
555 1 1 -0.55 2.613709 8.327462 23.221914 0 0 0
556 1 1 -0.55 1.462552 10.680232 23.434814 0 0 0
559 1 1 -0.55 7.395129 13.202748 23.31785 0 0 0
560 1 1 -0.55 6.462953 12.610608 25.707066 0 0 0
561 1 1 -0.55 4.84169 12.667849 23.642458 0 0 0
563 1 1 -0.55 1.625281 12.494154 25.331205 0 0 0
564 1 1 -0.55 2.364593 13.086294 22.874966 0 0 0
566 1 2 1.1 6.547331 9.205803 24.3127 0 0 0
569 1 2 1.1 1.448489 9.158432 23.961809 0 0 0
570 1 2 1.1 4.086306 8.513 22.600298 0 0 0
572 1 2 1.1 6.332368 12.306643 24.130026 0 0 0
575 1 2 1.1 1.319913 12.249403 23.769936 0 0 0
576 1 2 1.1 3.911523 13.248146 22.462307 0 0 0
306 1 1 -0.55 8.564367 14.8035 21.59362 0 0 0
371 1 1 -0.55 15.210139 8.56037 22.202095 0 0 0
373 1 1 -0.55 14.131306 8.970921 19.351595 0 0 0
374 1 1 -0.55 15.943424 9.849262 17.657591 0 0 0
376 1 1 -0.55 11.744614 9.138694 20.445009 0 0 0
377 1 1 -0.55 12.658709 8.327462 22.775085 0 0 0
378 1 1 -0.55 11.507552 10.680232 22.562185 0 0 0
384 1 1 -0.55 14.88669 12.667849 22.354542 0 0 0
385 1 1 -0.55 15.957487 14.8035 18.952078 0 0 0
386 1 1 -0.55 14.014784 13.198801 19.709057 0 0 0
387 1 1 -0.55 11.949532 14.8035 19.443588 0 0 0
388 1 1 -0.55 11.670281 12.494154 20.665794 0 0 0
389 1 1 -0.55 12.409593 13.086294 23.122034 0 0 0
390 1 1 -0.55 14.296044 14.8035 23.769936 0 0 0
393 1 2 1.1 15.654128 8.811043 18.8522 0 0 0
394 1 2 1.1 12.548214 8.854466 19.08087 0 0 0
395 1 2 1.1 11.493489 9.158432 22.035191 0 0 0
396 1 2 1.1 14.131306 8.513 23.396702 0 0 0
399 1 2 1.1 15.535597 13.267883 19.184692 0 0 0
400 1 2 1.1 12.425665 13.26591 19.472502 0 0 0
401 1 2 1.1 11.364913 12.249403 22.227064 0 0 0
402 1 2 1.1 13.956523 13.248146 23.534693 0 0 0
405 1 1 -0.55 12.064045 12.56521 18.068935 0 0 0
406 1 1 -0.55 12.110252 9.93611 17.970371 0 0 0
410 1 1 -0.55 14.24381 12.427045 24.890947 0 0 0
411 1 1 -0.55 16.003695 10.767079 25.922594 0 0 0
412 1 1 -0.55 14.191576 9.888738 24.228592 0 0 0
417 1 1 -0.55 15.668191 12.460599 17.799524 0 0 0
431 1 2 1.1 14.480872 10.926957 25.423199 0 0 0
520 1 1 -0.55 8.345386 10.599306 18.980991 0 0 0
543 1 1 -0.55 10.069108 8.489314 22.365055 0 0 0
558 1 1 -0.55 9.866199 12.734958 22.563499 0 0 0
565 1 2 1.1 8.465926 8.465629 22.207352 0 0 0
571 1 2 1.1 8.427755 13.275779 22.085131 0 0 0
366 1 1 -0.55 17.829876 8.402467 22.330887 0 0 0
368 1 1 -0.55 18.024748 9.80189 24.54137 0 0 0
369 1 1 -0.55 16.65461 9.109087 20.078348 0 0 0
370 1 1 -0.55 16.668673 10.747341 22.137699 0 0 0
380 1 1 -0.55 19.9112 12.734958 23.4335 0 0 0
381 1 1 -0.55 17.440128 13.202748 22.67915 0 0 0
382 1 1 -0.55 18.609367 14.8035 24.403379 0 0 0
383 1 1 -0.55 16.507954 12.610608 20.289934 0 0 0
391 1 2 1.1 18.510925 8.465629 23.789648 0 0 0
392 1 2 1.1 16.592331 9.205803 21.684299 0 0 0
397 1 2 1.1 18.472755 13.275779 23.911869 0 0 0
398 1 2 1.1 16.377369 12.306643 21.866974 0 0 0
413 1 1 -0.55 17.930325 12.365857 25.123562 0 0 0
432 1 2 1.1 17.586786 10.883533 25.651871 0 0 0
294 1 1 -0.55 6.623673 18.859659 23.859301 0 0 0
302 1 1 -0.55 1.462552 18.926767 23.434814 0 0 0
305 1 1 -0.55 7.395129 16.404251 23.31785 0 0 0
307 1 1 -0.55 6.462953 16.996391 25.707066 0 0 0
308 1 1 -0.55 4.84169 16.939152 23.642458 0 0 0
312 1 1 -0.55 1.625281 17.112846 25.331205 0 0 0
313 1 1 -0.55 2.364593 16.520706 22.874966 0 0 0
322 1 2 1.1 6.332368 17.300358 24.130026 0 0 0
325 1 2 1.1 1.319913 17.357597 23.769936 0 0 0
326 1 2 1.1 3.911523 16.358854 22.462307 0 0 0
331 1 1 -0.55 3.43539 18.978086 19.347652 0 0 0
334 1 1 -0.55 4.19881 17.179955 21.106052 0 0 0
335 1 1 -0.55 5.958694 18.839922 20.074406 0 0 0
336 1 1 -0.55 4.146576 19.718262 21.76841 0 0 0
337 1 1 -0.55 7.885325 17.241142 20.873438 0 0 0
354 1 2 1.1 3.497669 19.074802 17.741699 0 0 0
355 1 2 1.1 4.435872 18.680042 20.573801 0 0 0
356 1 2 1.1 7.541786 18.723467 20.345131 0 0 0
304 1 1 -0.55 9.866199 16.872042 22.563499 0 0 0
321 1 2 1.1 8.427755 16.331221 22.085131 0 0 0
338 1 1 -0.55 8.345386 19.007694 18.980991 0 0 0
443 1 1 -0.55 12.064045 17.04179 18.068935 0 0 0
444 1 1 -0.55 12.110252 19.670891 17.970371 0 0 0
448 1 1 -0.55 14.24381 17.179955 24.890947 0 0 0
449 1 1 -0.55 16.003695 18.839922 25.922594 0 0 0
450 1 1 -0.55 14.191576 19.718262 24.228592 0 0 0
455 1 1 -0.55 15.668191 17.1464 17.799524 0 0 0
465 1 2 1.1 14.480872 18.680042 25.423199 0 0 0
488 1 1 -0.55 11.507552 18.926767 22.562185 0 0 0
493 1 1 -0.55 14.88669 16.939152 22.354542 0 0 0
494 1 1 -0.55 14.014784 16.408199 19.709057 0 0 0
495 1 1 -0.55 11.670281 17.112846 20.665794 0 0 0
496 1 1 -0.55 12.409593 16.520706 23.122034 0 0 0
505 1 2 1.1 15.535597 16.339117 19.184692 0 0 0
506 1 2 1.1 12.425665 16.341089 19.472502 0 0 0
507 1 2 1.1 11.364913 17.357597 22.227064 0 0 0
508 1 2 1.1 13.956523 16.358854 23.534693 0 0 0
451 1 1 -0.55 17.930325 17.241142 25.123562 0 0 0
490 1 1 -0.55 19.9112 16.872042 23.4335 0 0 0
492 1 1 -0.55 16.507954 16.996391 20.289934 0 0 0
480 1 1 -0.55 16.668673 18.859659 22.137699 0 0 0
504 1 2 1.1 16.377369 17.300358 21.866974 0 0 0
491 1 1 -0.55 17.440128 16.404251 22.67915 0 0 0
503 1 2 1.1 18.472755 16.331221 23.911869 0 0 0
466 1 2 1.1 17.586786 18.723467 25.651871 0 0 0
579 1 1 -0.55 8.025955 22.434212 8.215064 0 0 0
580 1 1 -0.55 7.979748 19.805109 8.313629 0 0 0
584 1 1 -0.55 5.84619 22.296045 1.393052 0 0 0
585 1 1 -0.55 4.086306 20.63608 0.361405 0 0 0
586 1 1 -0.55 5.898424 19.757738 2.055409 0 0 0
587 1 1 -0.55 2.159675 22.234858 1.160439 0 0 0
591 1 1 -0.55 4.421809 22.329599 8.484475 0 0 0
605 1 2 1.1 5.609128 20.795958 0.860801 0 0 0
606 1 2 1.1 2.503214 20.752533 0.63213 0 0 0
620 1 1 -0.55 3.421327 20.616341 4.146301 0 0 0
630 1 1 -0.55 0.178801 22.603958 2.8505 0 0 0
631 1 1 -0.55 2.649871 23.071749 3.604851 0 0 0
633 1 1 -0.55 3.582047 22.479609 5.994066 0 0 0
634 1 1 -0.55 5.20331 22.536848 3.929458 0 0 0
636 1 1 -0.55 6.075216 23.067801 6.574943 0 0 0
639 1 1 -0.55 7.680407 22.955294 3.161965 0 0 0
647 1 2 1.1 1.617245 23.144779 2.372131 0 0 0
648 1 2 1.1 3.712632 22.175644 4.417026 0 0 0
649 1 2 1.1 4.554403 23.136883 7.099308 0 0 0
650 1 2 1.1 7.664335 23.134911 6.811499 0 0 0
652 1 2 1.1 6.133477 23.117146 2.749306 0 0 0
628 1 1 -0.55 8.582448 20.549232 3.721814 0 0 0
638 1 1 -0.55 8.419719 22.363153 5.618205 0 0 0
651 1 2 1.1 8.725087 22.118402 4.056935 0 0 0
734 1 1 -0.55 13.466327 20.616341 2.424699 0 0 0
744 1 1 -0.55 10.223801 22.603958 3.7205 0 0 0
745 1 1 -0.55 12.694871 23.071749 2.966149 0 0 0
746 1 1 -0.55 13.627047 22.479609 0.576934 0 0 0
747 1 1 -0.55 15.24831 22.536848 2.641542 0 0 0
757 1 2 1.1 11.662245 23.144779 4.198869 0 0 0
758 1 2 1.1 13.757632 22.175644 2.153974 0 0 0
770 1 1 -0.55 15.89119 22.296045 5.177948 0 0 0
771 1 1 -0.55 14.131306 20.63608 6.209595 0 0 0
772 1 1 -0.55 15.943424 19.757738 4.515591 0 0 0
773 1 1 -0.55 12.204675 22.234858 5.410562 0 0 0
774 1 1 -0.55 11.744614 20.468306 7.30301 0 0 0
787 1 2 1.1 15.654128 20.795958 5.710199 0 0 0
788 1 2 1.1 12.548214 20.752533 5.93887 0 0 0
742 1 1 -0.55 18.627447 20.549232 2.849186 0 0 0
749 1 1 -0.55 18.46472 22.363153 0.952795 0 0 0
750 1 1 -0.55 17.725407 22.955294 3.409035 0 0 0
761 1 2 1.1 18.770086 22.118402 2.514065 0 0 0