LAMMPS data file generated by bak-to-lmp-converted.py

2220 atoms
11 atom types
9 bonds
2 bond types
9 angles
2 angle types

-17.011620 17.011620 xlo xhi
-17.011620 17.011620 ylo yhi
-17.011620 17.011620 zlo zhi

Masses

1 15.999 # Ow
2 1e-05 # Mw
3 1.008 # Hw
4 65.38 # Zn
5 12.011 # C1
6 12.011 # C2
7 1.008 # H1
8 12.011 # C3
9 1.008 # H2
10 1.008 # H3
11 14.007 # N

Atoms # full

1 1 1 0.000000 -13.32226983 1.37355627 1.68578721
2 1 2 -1.040000 -13.40311088 1.29109089 1.59005746
3 1 3 0.520000 -13.02321447 0.94671892 0.88291263
4 1 3 0.520000 -14.25283636 1.15619354 1.74084361
5 1 1 0.000000 -12.37769799 0.31558807 -1.04065426
6 1 2 -1.040000 -12.24193420 0.37702672 -1.02352285
7 1 3 0.520000 -11.57530711 -0.11095085 -0.73987984
8 1 3 0.520000 -12.11953422 1.22207122 -1.20760218
9 1 1 0.000000 -13.27289298 3.94399595 0.34688544
10 1 2 -1.040000 -13.33607632 3.93963113 0.48285902
11 1 3 0.520000 -13.76026126 4.63911712 0.78905119
12 1 3 0.520000 -13.27909804 3.21477788 0.96691315
13 1 4 1.685600 -8.50581000 -17.01162000 -4.25289210
14 1 4 1.685600 -8.50581000 -17.01162000 12.75872790
15 1 4 1.685600 -8.50581000 0.00000000 -4.25289210
16 1 4 1.685600 -8.50581000 0.00000000 12.75872790
17 1 4 1.685600 8.50581000 -17.01162000 -4.25289210
18 1 4 1.685600 8.50581000 -17.01162000 12.75872790
19 1 4 1.685600 8.50581000 0.00000000 -4.25289210
20 1 4 1.685600 8.50581000 0.00000000 12.75872790
21 1 4 1.685600 -8.50581000 -17.01162000 -12.75872790
22 1 4 1.685600 -8.50581000 -17.01162000 4.25289210
23 1 4 1.685600 -8.50581000 0.00000000 -12.75872790
24 1 4 1.685600 -8.50581000 0.00000000 4.25289210
25 1 4 1.685600 8.50581000 -17.01162000 -12.75872790
26 1 4 1.685600 8.50581000 -17.01162000 4.25289210
27 1 4 1.685600 8.50581000 0.00000000 -12.75872790
28 1 4 1.685600 8.50581000 0.00000000 4.25289210
29 1 4 1.685600 -4.25289210 -8.50581000 -17.01162000
30 1 4 1.685600 -4.25289210 -8.50581000 0.00000000
31 1 4 1.685600 -4.25289210 8.50581000 -17.01162000
32 1 4 1.685600 -4.25289210 8.50581000 0.00000000
33 1 4 1.685600 12.75872790 -8.50581000 -17.01162000
34 1 4 1.685600 12.75872790 -8.50581000 0.00000000
35 1 4 1.685600 12.75872790 8.50581000 -17.01162000
36 1 4 1.685600 12.75872790 8.50581000 0.00000000
37 1 4 1.685600 -12.75872790 -8.50581000 -17.01162000
38 1 4 1.685600 -12.75872790 -8.50581000 0.00000000
39 1 4 1.685600 -12.75872790 8.50581000 -17.01162000
40 1 4 1.685600 -12.75872790 8.50581000 0.00000000
41 1 4 1.685600 4.25289210 -8.50581000 -17.01162000
42 1 4 1.685600 4.25289210 -8.50581000 0.00000000
43 1 4 1.685600 4.25289210 8.50581000 -17.01162000
44 1 4 1.685600 4.25289210 8.50581000 0.00000000
45 1 4 1.685600 -17.01162000 -4.25289210 -8.50581000
46 1 4 1.685600 -17.01162000 -4.25289210 8.50581000
47 1 4 1.685600 -17.01162000 12.75872790 -8.50581000
48 1 4 1.685600 -17.01162000 12.75872790 8.50581000
49 1 4 1.685600 0.00000000 -4.25289210 -8.50581000
50 1 4 1.685600 0.00000000 -4.25289210 8.50581000
51 1 4 1.685600 0.00000000 12.75872790 -8.50581000
52 1 4 1.685600 0.00000000 12.75872790 8.50581000
53 1 4 1.685600 -17.01162000 -12.75872790 -8.50581000
54 1 4 1.685600 -17.01162000 -12.75872790 8.50581000
55 1 4 1.685600 -17.01162000 4.25289210 -8.50581000
56 1 4 1.685600 -17.01162000 4.25289210 8.50581000
57 1 4 1.685600 0.00000000 -12.75872790 -8.50581000
58 1 4 1.685600 0.00000000 -12.75872790 8.50581000
59 1 4 1.685600 0.00000000 4.25289210 -8.50581000
60 1 4 1.685600 0.00000000 4.25289210 8.50581000
61 1 4 1.685600 -17.01162000 -8.50581000 -4.25289210
62 1 4 1.685600 -17.01162000 -8.50581000 12.75872790
63 1 4 1.685600 -17.01162000 8.50581000 -4.25289210
64 1 4 1.685600 -17.01162000 8.50581000 12.75872790
65 1 4 1.685600 0.00000000 -8.50581000 -4.25289210
66 1 4 1.685600 0.00000000 -8.50581000 12.75872790
67 1 4 1.685600 0.00000000 8.50581000 -4.25289210
68 1 4 1.685600 0.00000000 8.50581000 12.75872790
69 1 4 1.685600 -17.01162000 -8.50581000 -12.75872790
70 1 4 1.685600 -17.01162000 -8.50581000 4.25289210
71 1 4 1.685600 -17.01162000 8.50581000 -12.75872790
72 1 4 1.685600 -17.01162000 8.50581000 4.25289210
73 1 4 1.685600 0.00000000 -8.50581000 -12.75872790
74 1 4 1.685600 0.00000000 -8.50581000 4.25289210
75 1 4 1.685600 0.00000000 8.50581000 -12.75872790
76 1 4 1.685600 0.00000000 8.50581000 4.25289210
77 1 4 1.685600 -8.50581000 -4.25289210 0.00000000
78 1 4 1.685600 -8.50581000 -4.25289210 17.01162000
79 1 4 1.685600 -8.50581000 12.75872790 0.00000000
80 1 4 1.685600 -8.50581000 12.75872790 17.01162000
81 1 4 1.685600 8.50581000 -4.25289210 0.00000000
82 1 4 1.685600 8.50581000 -4.25289210 17.01162000
83 1 4 1.685600 8.50581000 12.75872790 0.00000000
84 1 4 1.685600 8.50581000 12.75872790 17.01162000
85 1 4 1.685600 -8.50581000 -12.75872790 0.00000000
86 1 4 1.685600 -8.50581000 -12.75872790 17.01162000
87 1 4 1.685600 -8.50581000 4.25289210 0.00000000
88 1 4 1.685600 -8.50581000 4.25289210 17.01162000
89 1 4 1.685600 8.50581000 -12.75872790 0.00000000
90 1 4 1.685600 8.50581000 -12.75872790 17.01162000
91 1 4 1.685600 8.50581000 4.25289210 0.00000000
92 1 4 1.685600 8.50581000 4.25289210 17.01162000
93 1 4 1.685600 -4.25289210 -17.01162000 -8.50581000
94 1 4 1.685600 -4.25289210 -17.01162000 8.50581000
95 1 4 1.685600 -4.25289210 0.00000000 -8.50581000
96 1 4 1.685600 -4.25289210 0.00000000 8.50581000
97 1 4 1.685600 12.75872790 -17.01162000 -8.50581000
98 1 4 1.685600 12.75872790 -17.01162000 8.50581000
99 1 4 1.685600 12.75872790 0.00000000 -8.50581000
100 1 4 1.685600 12.75872790 0.00000000 8.50581000
101 1 4 1.685600 -12.75872790 -17.01162000 -8.50581000
102 1 4 1.685600 -12.75872790 -17.01162000 8.50581000
103 1 4 1.685600 -12.75872790 0.00000000 -8.50581000
104 1 4 1.685600 -12.75872790 0.00000000 8.50581000
105 1 4 1.685600 4.25289210 -17.01162000 -8.50581000
106 1 4 1.685600 4.25289210 -17.01162000 8.50581000
107 1 4 1.685600 4.25289210 0.00000000 -8.50581000
108 1 4 1.685600 4.25289210 0.00000000 8.50581000
109 1 5 -0.238500 -10.59617952 -16.90955957 -6.41544148
110 1 5 -0.238500 -10.59617952 -16.90955957 10.59617852
111 1 5 -0.238500 -10.59617952 0.10206043 -6.41544148
112 1 5 -0.238500 -10.59617952 0.10206043 10.59617852
113 1 5 -0.238500 6.41544048 -16.90955957 -6.41544148
114 1 5 -0.238500 6.41544048 -16.90955957 10.59617852
115 1 5 -0.238500 6.41544048 0.10206043 -6.41544148
116 1 5 -0.238500 6.41544048 0.10206043 10.59617852
117 1 5 -0.238500 -6.41544148 -0.10206043 -6.41544148
118 1 5 -0.238500 -6.41544148 -0.10206043 10.59617852
119 1 5 -0.238500 -6.41544148 16.90955957 -6.41544148
120 1 5 -0.238500 -6.41544148 16.90955957 10.59617852
121 1 5 -0.238500 10.59617852 -0.10206043 -6.41544148
122 1 5 -0.238500 10.59617852 -0.10206043 10.59617852
123 1 5 -0.238500 10.59617852 16.90955957 -6.41544148
124 1 5 -0.238500 10.59617852 16.90955957 10.59617852
125 1 5 -0.238500 -6.41544148 -16.90955957 -10.59617952
126 1 5 -0.238500 -6.41544148 -16.90955957 6.41544048
127 1 5 -0.238500 -6.41544148 0.10206043 -10.59617952
128 1 5 -0.238500 -6.41544148 0.10206043 6.41544048
129 1 5 -0.238500 10.59617852 -16.90955957 -10.59617952
130 1 5 -0.238500 10.59617852 -16.90955957 6.41544048
131 1 5 -0.238500 10.59617852 0.10206043 -10.59617952
132 1 5 -0.238500 10.59617852 0.10206043 6.41544048
133 1 5 -0.238500 -10.59617952 -0.10206043 -10.59617952
134 1 5 -0.238500 -10.59617952 -0.10206043 6.41544048
135 1 5 -0.238500 -10.59617952 16.90955957 -10.59617952
136 1 5 -0.238500 -10.59617952 16.90955957 6.41544048
137 1 5 -0.238500 6.41544048 -0.10206043 -10.59617952
138 1 5 -0.238500 6.41544048 -0.10206043 6.41544048
139 1 5 -0.238500 6.41544048 16.90955957 -10.59617952
140 1 5 -0.238500 6.41544048 16.90955957 6.41544048
141 1 5 -0.238500 -6.41544148 -10.59617952 -16.90955957
142 1 5 -0.238500 -6.41544148 -10.59617952 0.10206043
143 1 5 -0.238500 -6.41544148 6.41544048 -16.90955957
144 1 5 -0.238500 -6.41544148 6.41544048 0.10206043
145 1 5 -0.238500 10.59617852 -10.59617952 -16.90955957
146 1 5 -0.238500 10.59617852 -10.59617952 0.10206043
147 1 5 -0.238500 10.59617852 6.41544048 -16.90955957
148 1 5 -0.238500 10.59617852 6.41544048 0.10206043
149 1 5 -0.238500 -6.41544148 -6.41544148 -0.10206043
150 1 5 -0.238500 -6.41544148 -6.41544148 16.90955957
151 1 5 -0.238500 -6.41544148 10.59617852 -0.10206043
152 1 5 -0.238500 -6.41544148 10.59617852 16.90955957
153 1 5 -0.238500 10.59617852 -6.41544148 -0.10206043
154 1 5 -0.238500 10.59617852 -6.41544148 16.90955957
155 1 5 -0.238500 10.59617852 10.59617852 -0.10206043
156 1 5 -0.238500 10.59617852 10.59617852 16.90955957
157 1 5 -0.238500 -10.59617952 -6.41544148 -16.90955957
158 1 5 -0.238500 -10.59617952 -6.41544148 0.10206043
159 1 5 -0.238500 -10.59617952 10.59617852 -16.90955957
160 1 5 -0.238500 -10.59617952 10.59617852 0.10206043
161 1 5 -0.238500 6.41544048 -6.41544148 -16.90955957
162 1 5 -0.238500 6.41544048 -6.41544148 0.10206043
163 1 5 -0.238500 6.41544048 10.59617852 -16.90955957
164 1 5 -0.238500 6.41544048 10.59617852 0.10206043
165 1 5 -0.238500 -10.59617952 -10.59617952 -0.10206043
166 1 5 -0.238500 -10.59617952 -10.59617952 16.90955957
167 1 5 -0.238500 -10.59617952 6.41544048 -0.10206043
168 1 5 -0.238500 -10.59617952 6.41544048 16.90955957
169 1 5 -0.238500 6.41544048 -10.59617952 -0.10206043
170 1 5 -0.238500 6.41544048 -10.59617952 16.90955957
171 1 5 -0.238500 6.41544048 6.41544048 -0.10206043
172 1 5 -0.238500 6.41544048 6.41544048 16.90955957
173 1 5 -0.238500 -16.90955957 -6.41544148 -10.59617952
174 1 5 -0.238500 -16.90955957 -6.41544148 6.41544048
175 1 5 -0.238500 -16.90955957 10.59617852 -10.59617952
176 1 5 -0.238500 -16.90955957 10.59617852 6.41544048
177 1 5 -0.238500 0.10206043 -6.41544148 -10.59617952
178 1 5 -0.238500 0.10206043 -6.41544148 6.41544048
179 1 5 -0.238500 0.10206043 10.59617852 -10.59617952
180 1 5 -0.238500 0.10206043 10.59617852 6.41544048
181 1 5 -0.238500 -0.10206043 -6.41544148 -6.41544148
182 1 5 -0.238500 -0.10206043 -6.41544148 10.59617852
183 1 5 -0.238500 -0.10206043 10.59617852 -6.41544148
184 1 5 -0.238500 -0.10206043 10.59617852 10.59617852
185 1 5 -0.238500 16.90955957 -6.41544148 -6.41544148
186 1 5 -0.238500 16.90955957 -6.41544148 10.59617852
187 1 5 -0.238500 16.90955957 10.59617852 -6.41544148
188 1 5 -0.238500 16.90955957 10.59617852 10.59617852
189 1 5 -0.238500 -16.90955957 -10.59617952 -6.41544148
190 1 5 -0.238500 -16.90955957 -10.59617952 10.59617852
191 1 5 -0.238500 -16.90955957 6.41544048 -6.41544148
192 1 5 -0.238500 -16.90955957 6.41544048 10.59617852
193 1 5 -0.238500 0.10206043 -10.59617952 -6.41544148
194 1 5 -0.238500 0.10206043 -10.59617952 10.59617852
195 1 5 -0.238500 0.10206043 6.41544048 -6.41544148
196 1 5 -0.238500 0.10206043 6.41544048 10.59617852
197 1 5 -0.238500 -0.10206043 -10.59617952 -10.59617952
198 1 5 -0.238500 -0.10206043 -10.59617952 6.41544048
199 1 5 -0.238500 -0.10206043 6.41544048 -10.59617952
200 1 5 -0.238500 -0.10206043 6.41544048 6.41544048
201 1 5 -0.238500 16.90955957 -10.59617952 -10.59617952
202 1 5 -0.238500 16.90955957 -10.59617952 6.41544048
203 1 5 -0.238500 16.90955957 6.41544048 -10.59617952
204 1 5 -0.238500 16.90955957 6.41544048 6.41544048
205 1 5 -0.238500 -2.09033639 -8.40390359 -14.92128461
206 1 5 -0.238500 -2.09033639 -8.40390359 2.09033539
207 1 5 -0.238500 -2.09033639 8.60771641 -14.92128461
208 1 5 -0.238500 -2.09033639 8.60771641 2.09033539
209 1 5 -0.238500 14.92128361 -8.40390359 -14.92128461
210 1 5 -0.238500 14.92128361 -8.40390359 2.09033539
211 1 5 -0.238500 14.92128361 8.60771641 -14.92128461
212 1 5 -0.238500 14.92128361 8.60771641 2.09033539
213 1 5 -0.238500 -14.92128361 -8.60771641 -14.92128461
214 1 5 -0.238500 -14.92128361 -8.60771641 2.09033539
215 1 5 -0.238500 -14.92128361 8.40390359 -14.92128461
216 1 5 -0.238500 -14.92128361 8.40390359 2.09033539
217 1 5 -0.238500 2.09033639 -8.60771641 -14.92128461
218 1 5 -0.238500 2.09033639 -8.60771641 2.09033539
219 1 5 -0.238500 2.09033639 8.40390359 -14.92128461
220 1 5 -0.238500 2.09033639 8.40390359 2.09033539
221 1 5 -0.238500 -14.92128361 -8.40390359 -2.09033639
222 1 5 -0.238500 -14.92128361 -8.40390359 14.92128361
223 1 5 -0.238500 -14.92128361 8.60771641 -2.09033639
224 1 5 -0.238500 -14.92128361 8.60771641 14.92128361
225 1 5 -0.238500 2.09033639 -8.40390359 -2.09033639
226 1 5 -0.238500 2.09033639 -8.40390359 14.92128361
227 1 5 -0.238500 2.09033639 8.60771641 -2.09033639
228 1 5 -0.238500 2.09033639 8.60771641 14.92128361
229 1 5 -0.238500 -2.09033639 -8.60771641 -2.09033639
230 1 5 -0.238500 -2.09033639 -8.60771641 14.92128361
231 1 5 -0.238500 -2.09033639 8.40390359 -2.09033639
232 1 5 -0.238500 -2.09033639 8.40390359 14.92128361
233 1 5 -0.238500 14.92128361 -8.60771641 -2.09033639
234 1 5 -0.238500 14.92128361 -8.60771641 14.92128361
235 1 5 -0.238500 14.92128361 8.40390359 -2.09033639
236 1 5 -0.238500 14.92128361 8.40390359 14.92128361
237 1 5 -0.238500 -14.92128461 -2.09033639 -8.40390359
238 1 5 -0.238500 -14.92128461 -2.09033639 8.60771641
239 1 5 -0.238500 -14.92128461 14.92128361 -8.40390359
240 1 5 -0.238500 -14.92128461 14.92128361 8.60771641
241 1 5 -0.238500 2.09033539 -2.09033639 -8.40390359
242 1 5 -0.238500 2.09033539 -2.09033639 8.60771641
243 1 5 -0.238500 2.09033539 14.92128361 -8.40390359
244 1 5 -0.238500 2.09033539 14.92128361 8.60771641
245 1 5 -0.238500 -14.92128461 -14.92128361 -8.60771641
246 1 5 -0.238500 -14.92128461 -14.92128361 8.40390359
247 1 5 -0.238500 -14.92128461 2.09033639 -8.60771641
248 1 5 -0.238500 -14.92128461 2.09033639 8.40390359
249 1 5 -0.238500 2.09033539 -14.92128361 -8.60771641
250 1 5 -0.238500 2.09033539 -14.92128361 8.40390359
251 1 5 -0.238500 2.09033539 2.09033639 -8.60771641
252 1 5 -0.238500 2.09033539 2.09033639 8.40390359
253 1 5 -0.238500 -2.09033639 -14.92128361 -8.40390359
254 1 5 -0.238500 -2.09033639 -14.92128361 8.60771641
255 1 5 -0.238500 -2.09033639 2.09033639 -8.40390359
256 1 5 -0.238500 -2.09033639 2.09033639 8.60771641
257 1 5 -0.238500 14.92128361 -14.92128361 -8.40390359
258 1 5 -0.238500 14.92128361 -14.92128361 8.60771641
259 1 5 -0.238500 14.92128361 2.09033639 -8.40390359
260 1 5 -0.238500 14.92128361 2.09033639 8.60771641
261 1 5 -0.238500 -2.09033639 -2.09033639 -8.60771641
262 1 5 -0.238500 -2.09033639 -2.09033639 8.40390359
263 1 5 -0.238500 -2.09033639 14.92128361 -8.60771641
264 1 5 -0.238500 -2.09033639 14.92128361 8.40390359
265 1 5 -0.238500 14.92128361 -2.09033639 -8.60771641
266 1 5 -0.238500 14.92128361 -2.09033639 8.40390359
267 1 5 -0.238500 14.92128361 14.92128361 -8.60771641
268 1 5 -0.238500 14.92128361 14.92128361 8.40390359
269 1 5 -0.238500 -8.40390359 -14.92128461 -2.09033639
270 1 5 -0.238500 -8.40390359 -14.92128461 14.92128361
271 1 5 -0.238500 -8.40390359 2.09033539 -2.09033639
272 1 5 -0.238500 -8.40390359 2.09033539 14.92128361
273 1 5 -0.238500 8.60771641 -14.92128461 -2.09033639
274 1 5 -0.238500 8.60771641 -14.92128461 14.92128361
275 1 5 -0.238500 8.60771641 2.09033539 -2.09033639
276 1 5 -0.238500 8.60771641 2.09033539 14.92128361
277 1 5 -0.238500 -8.60771641 -14.92128461 -14.92128361
278 1 5 -0.238500 -8.60771641 -14.92128461 2.09033639
279 1 5 -0.238500 -8.60771641 2.09033539 -14.92128361
280 1 5 -0.238500 -8.60771641 2.09033539 2.09033639
281 1 5 -0.238500 8.40390359 -14.92128461 -14.92128361
282 1 5 -0.238500 8.40390359 -14.92128461 2.09033639
283 1 5 -0.238500 8.40390359 2.09033539 -14.92128361
284 1 5 -0.238500 8.40390359 2.09033539 2.09033639
285 1 5 -0.238500 -8.40390359 -2.09033639 -14.92128361
286 1 5 -0.238500 -8.40390359 -2.09033639 2.09033639
287 1 5 -0.238500 -8.40390359 14.92128361 -14.92128361
288 1 5 -0.238500 -8.40390359 14.92128361 2.09033639
289 1 5 -0.238500 8.60771641 -2.09033639 -14.92128361
290 1 5 -0.238500 8.60771641 -2.09033639 2.09033639
291 1 5 -0.238500 8.60771641 14.92128361 -14.92128361
292 1 5 -0.238500 8.60771641 14.92128361 2.09033639
293 1 5 -0.238500 -8.60771641 -2.09033639 -2.09033639
294 1 5 -0.238500 -8.60771641 -2.09033639 14.92128361
295 1 5 -0.238500 -8.60771641 14.92128361 -2.09033639
296 1 5 -0.238500 -8.60771641 14.92128361 14.92128361
297 1 5 -0.238500 8.40390359 -2.09033639 -2.09033639
298 1 5 -0.238500 8.40390359 -2.09033639 14.92128361
299 1 5 -0.238500 8.40390359 14.92128361 -2.09033639
300 1 5 -0.238500 8.40390359 14.92128361 14.92128361
301 1 6 -0.108400 -10.69779262 -1.79287856 -5.34645267
302 1 6 -0.108400 -10.69779262 -1.79287856 11.66516733
303 1 6 -0.108400 -10.69779262 15.21874144 -5.34645267
304 1 6 -0.108400 -10.69779262 15.21874144 11.66516733
305 1 6 -0.108400 6.31382738 -1.79287856 -5.34645267
306 1 6 -0.108400 6.31382738 -1.79287856 11.66516733
307 1 6 -0.108400 6.31382738 15.21874144 -5.34645267
308 1 6 -0.108400 6.31382738 15.21874144 11.66516733
309 1 6 -0.108400 -6.31382838 -15.21874244 -5.34645267
310 1 6 -0.108400 -6.31382838 -15.21874244 11.66516733
311 1 6 -0.108400 -6.31382838 1.79287756 -5.34645267
312 1 6 -0.108400 -6.31382838 1.79287756 11.66516733
313 1 6 -0.108400 10.69779162 -15.21874244 -5.34645267
314 1 6 -0.108400 10.69779162 -15.21874244 11.66516733
315 1 6 -0.108400 10.69779162 1.79287756 -5.34645267
316 1 6 -0.108400 10.69779162 1.79287756 11.66516733
317 1 6 -0.108400 -6.31382838 -1.79287856 -11.66516733
318 1 6 -0.108400 -6.31382838 -1.79287856 5.34645267
319 1 6 -0.108400 -6.31382838 15.21874144 -11.66516733
320 1 6 -0.108400 -6.31382838 15.21874144 5.34645267
321 1 6 -0.108400 10.69779162 -1.79287856 -11.66516733
322 1 6 -0.108400 10.69779162 -1.79287856 5.34645267
323 1 6 -0.108400 10.69779162 15.21874144 -11.66516733
324 1 6 -0.108400 10.69779162 15.21874144 5.34645267
325 1 6 -0.108400 -10.69779262 -15.21874244 -11.66516733
326 1 6 -0.108400 -10.69779262 -15.21874244 5.34645267
327 1 6 -0.108400 -10.69779262 1.79287756 -11.66516733
328 1 6 -0.108400 -10.69779262 1.79287756 5.34645267
329 1 6 -0.108400 6.31382738 -15.21874244 -11.66516733
330 1 6 -0.108400 6.31382738 -15.21874244 5.34645267
331 1 6 -0.108400 6.31382738 1.79287756 -11.66516733
332 1 6 -0.108400 6.31382738 1.79287756 5.34645267
333 1 6 -0.108400 -5.34645267 -10.69779262 -1.79287856
334 1 6 -0.108400 -5.34645267 -10.69779262 15.21874144
335 1 6 -0.108400 -5.34645267 6.31382738 -1.79287856
336 1 6 -0.108400 -5.34645267 6.31382738 15.21874144
337 1 6 -0.108400 11.66516733 -10.69779262 -1.79287856
338 1 6 -0.108400 11.66516733 -10.69779262 15.21874144
339 1 6 -0.108400 11.66516733 6.31382738 -1.79287856
340 1 6 -0.108400 11.66516733 6.31382738 15.21874144
341 1 6 -0.108400 -5.34645267 -6.31382838 -15.21874244
342 1 6 -0.108400 -5.34645267 -6.31382838 1.79287756
343 1 6 -0.108400 -5.34645267 10.69779162 -15.21874244
344 1 6 -0.108400 -5.34645267 10.69779162 1.79287756
345 1 6 -0.108400 11.66516733 -6.31382838 -15.21874244
346 1 6 -0.108400 11.66516733 -6.31382838 1.79287756
347 1 6 -0.108400 11.66516733 10.69779162 -15.21874244
348 1 6 -0.108400 11.66516733 10.69779162 1.79287756
349 1 6 -0.108400 -11.66516733 -6.31382838 -1.79287856
350 1 6 -0.108400 -11.66516733 -6.31382838 15.21874144
351 1 6 -0.108400 -11.66516733 10.69779162 -1.79287856
352 1 6 -0.108400 -11.66516733 10.69779162 15.21874144
353 1 6 -0.108400 5.34645267 -6.31382838 -1.79287856
354 1 6 -0.108400 5.34645267 -6.31382838 15.21874144
355 1 6 -0.108400 5.34645267 10.69779162 -1.79287856
356 1 6 -0.108400 5.34645267 10.69779162 15.21874144
357 1 6 -0.108400 -11.66516733 -10.69779262 -15.21874244
358 1 6 -0.108400 -11.66516733 -10.69779262 1.79287756
359 1 6 -0.108400 -11.66516733 6.31382738 -15.21874244
360 1 6 -0.108400 -11.66516733 6.31382738 1.79287756
361 1 6 -0.108400 5.34645267 -10.69779262 -15.21874244
362 1 6 -0.108400 5.34645267 -10.69779262 1.79287756
363 1 6 -0.108400 5.34645267 6.31382738 -15.21874244
364 1 6 -0.108400 5.34645267 6.31382738 1.79287756
365 1 6 -0.108400 -1.79287856 -5.34645267 -10.69779262
366 1 6 -0.108400 -1.79287856 -5.34645267 6.31382738
367 1 6 -0.108400 -1.79287856 11.66516733 -10.69779262
368 1 6 -0.108400 -1.79287856 11.66516733 6.31382738
369 1 6 -0.108400 15.21874144 -5.34645267 -10.69779262
370 1 6 -0.108400 15.21874144 -5.34645267 6.31382738
371 1 6 -0.108400 15.21874144 11.66516733 -10.69779262
372 1 6 -0.108400 15.21874144 11.66516733 6.31382738
373 1 6 -0.108400 -15.21874244 -5.34645267 -6.31382838
374 1 6 -0.108400 -15.21874244 -5.34645267 10.69779162
375 1 6 -0.108400 -15.21874244 11.66516733 -6.31382838
376 1 6 -0.108400 -15.21874244 11.66516733 10.69779162
377 1 6 -0.108400 1.79287756 -5.34645267 -6.31382838
378 1 6 -0.108400 1.79287756 -5.34645267 10.69779162
379 1 6 -0.108400 1.79287756 11.66516733 -6.31382838
380 1 6 -0.108400 1.79287756 11.66516733 10.69779162
381 1 6 -0.108400 -1.79287856 -11.66516733 -6.31382838
382 1 6 -0.108400 -1.79287856 -11.66516733 10.69779162
383 1 6 -0.108400 -1.79287856 5.34645267 -6.31382838
384 1 6 -0.108400 -1.79287856 5.34645267 10.69779162
385 1 6 -0.108400 15.21874144 -11.66516733 -6.31382838
386 1 6 -0.108400 15.21874144 -11.66516733 10.69779162
387 1 6 -0.108400 15.21874144 5.34645267 -6.31382838
388 1 6 -0.108400 15.21874144 5.34645267 10.69779162
389 1 6 -0.108400 -15.21874244 -11.66516733 -10.69779262
390 1 6 -0.108400 -15.21874244 -11.66516733 6.31382738
391 1 6 -0.108400 -15.21874244 5.34645267 -10.69779262
392 1 6 -0.108400 -15.21874244 5.34645267 6.31382738
393 1 6 -0.108400 1.79287756 -11.66516733 -10.69779262
394 1 6 -0.108400 1.79287756 -11.66516733 6.31382738
395 1 6 -0.108400 1.79287756 5.34645267 -10.69779262
396 1 6 -0.108400 1.79287756 5.34645267 6.31382738
397 1 6 -0.108400 -1.79287856 -10.69779262 -5.34645267
398 1 6 -0.108400 -1.79287856 -10.69779262 11.66516733
399 1 6 -0.108400 -1.79287856 6.31382738 -5.34645267
400 1 6 -0.108400 -1.79287856 6.31382738 11.66516733
401 1 6 -0.108400 15.21874144 -10.69779262 -5.34645267
402 1 6 -0.108400 15.21874144 -10.69779262 11.66516733
403 1 6 -0.108400 15.21874144 6.31382738 -5.34645267
404 1 6 -0.108400 15.21874144 6.31382738 11.66516733
405 1 6 -0.108400 -15.21874244 -6.31382838 -5.34645267
406 1 6 -0.108400 -15.21874244 -6.31382838 11.66516733
407 1 6 -0.108400 -15.21874244 10.69779162 -5.34645267
408 1 6 -0.108400 -15.21874244 10.69779162 11.66516733
409 1 6 -0.108400 1.79287756 -6.31382838 -5.34645267
410 1 6 -0.108400 1.79287756 -6.31382838 11.66516733
411 1 6 -0.108400 1.79287756 10.69779162 -5.34645267
412 1 6 -0.108400 1.79287756 10.69779162 11.66516733
413 1 6 -0.108400 -1.79287856 -6.31382838 -11.66516733
414 1 6 -0.108400 -1.79287856 -6.31382838 5.34645267
415 1 6 -0.108400 -1.79287856 10.69779162 -11.66516733
416 1 6 -0.108400 -1.79287856 10.69779162 5.34645267
417 1 6 -0.108400 15.21874144 -6.31382838 -11.66516733
418 1 6 -0.108400 15.21874144 -6.31382838 5.34645267
419 1 6 -0.108400 15.21874144 10.69779162 -11.66516733
420 1 6 -0.108400 15.21874144 10.69779162 5.34645267
421 1 6 -0.108400 -15.21874244 -10.69779262 -11.66516733
422 1 6 -0.108400 -15.21874244 -10.69779262 5.34645267
423 1 6 -0.108400 -15.21874244 6.31382738 -11.66516733
424 1 6 -0.108400 -15.21874244 6.31382738 5.34645267
425 1 6 -0.108400 1.79287756 -10.69779262 -11.66516733
426 1 6 -0.108400 1.79287756 -10.69779262 5.34645267
427 1 6 -0.108400 1.79287756 6.31382738 -11.66516733
428 1 6 -0.108400 1.79287756 6.31382738 5.34645267
429 1 6 -0.108400 -10.69779262 -5.34645267 -1.79287856
430 1 6 -0.108400 -10.69779262 -5.34645267 15.21874144
431 1 6 -0.108400 -10.69779262 11.66516733 -1.79287856
432 1 6 -0.108400 -10.69779262 11.66516733 15.21874144
433 1 6 -0.108400 6.31382738 -5.34645267 -1.79287856
434 1 6 -0.108400 6.31382738 -5.34645267 15.21874144
435 1 6 -0.108400 6.31382738 11.66516733 -1.79287856
436 1 6 -0.108400 6.31382738 11.66516733 15.21874144
437 1 6 -0.108400 -6.31382838 -5.34645267 -15.21874244
438 1 6 -0.108400 -6.31382838 -5.34645267 1.79287756
439 1 6 -0.108400 -6.31382838 11.66516733 -15.21874244
440 1 6 -0.108400 -6.31382838 11.66516733 1.79287756
441 1 6 -0.108400 10.69779162 -5.34645267 -15.21874244
442 1 6 -0.108400 10.69779162 -5.34645267 1.79287756
443 1 6 -0.108400 10.69779162 11.66516733 -15.21874244
444 1 6 -0.108400 10.69779162 11.66516733 1.79287756
445 1 6 -0.108400 -6.31382838 -11.66516733 -1.79287856
446 1 6 -0.108400 -6.31382838 -11.66516733 15.21874144
447 1 6 -0.108400 -6.31382838 5.34645267 -1.79287856
448 1 6 -0.108400 -6.31382838 5.34645267 15.21874144
449 1 6 -0.108400 10.69779162 -11.66516733 -1.79287856
450 1 6 -0.108400 10.69779162 -11.66516733 15.21874144
451 1 6 -0.108400 10.69779162 5.34645267 -1.79287856
452 1 6 -0.108400 10.69779162 5.34645267 15.21874144
453 1 6 -0.108400 -10.69779262 -11.66516733 -15.21874244
454 1 6 -0.108400 -10.69779262 -11.66516733 1.79287756
455 1 6 -0.108400 -10.69779262 5.34645267 -15.21874244
456 1 6 -0.108400 -10.69779262 5.34645267 1.79287756
457 1 6 -0.108400 6.31382738 -11.66516733 -15.21874244
458 1 6 -0.108400 6.31382738 -11.66516733 1.79287756
459 1 6 -0.108400 6.31382738 5.34645267 -15.21874244
460 1 6 -0.108400 6.31382738 5.34645267 1.79287756
461 1 6 -0.108400 -5.34645267 -1.79287856 -10.69779262
462 1 6 -0.108400 -5.34645267 -1.79287856 6.31382738
463 1 6 -0.108400 -5.34645267 15.21874144 -10.69779262
464 1 6 -0.108400 -5.34645267 15.21874144 6.31382738
465 1 6 -0.108400 11.66516733 -1.79287856 -10.69779262
466 1 6 -0.108400 11.66516733 -1.79287856 6.31382738
467 1 6 -0.108400 11.66516733 15.21874144 -10.69779262
468 1 6 -0.108400 11.66516733 15.21874144 6.31382738
469 1 6 -0.108400 -5.34645267 -15.21874244 -6.31382838
470 1 6 -0.108400 -5.34645267 -15.21874244 10.69779162
471 1 6 -0.108400 -5.34645267 1.79287756 -6.31382838
472 1 6 -0.108400 -5.34645267 1.79287756 10.69779162
473 1 6 -0.108400 11.66516733 -15.21874244 -6.31382838
474 1 6 -0.108400 11.66516733 -15.21874244 10.69779162
475 1 6 -0.108400 11.66516733 1.79287756 -6.31382838
476 1 6 -0.108400 11.66516733 1.79287756 10.69779162
477 1 6 -0.108400 -11.66516733 -1.79287856 -6.31382838
478 1 6 -0.108400 -11.66516733 -1.79287856 10.69779162
479 1 6 -0.108400 -11.66516733 15.21874144 -6.31382838
480 1 6 -0.108400 -11.66516733 15.21874144 10.69779162
481 1 6 -0.108400 5.34645267 -1.79287856 -6.31382838
482 1 6 -0.108400 5.34645267 -1.79287856 10.69779162
483 1 6 -0.108400 5.34645267 15.21874144 -6.31382838
484 1 6 -0.108400 5.34645267 15.21874144 10.69779162
485 1 6 -0.108400 -11.66516733 -15.21874244 -10.69779262
486 1 6 -0.108400 -11.66516733 -15.21874244 6.31382738
487 1 6 -0.108400 -11.66516733 1.79287756 -10.69779262
488 1 6 -0.108400 -11.66516733 1.79287756 6.31382738
489 1 6 -0.108400 5.34645267 -15.21874244 -10.69779262
490 1 6 -0.108400 5.34645267 -15.21874244 6.31382738
491 1 6 -0.108400 5.34645267 1.79287756 -10.69779262
492 1 6 -0.108400 5.34645267 1.79287756 6.31382738
493 1 6 -0.108400 -2.19189142 -10.29881802 -13.85223180
494 1 6 -0.108400 -2.19189142 -10.29881802 3.15938820
495 1 6 -0.108400 -2.19189142 6.71280198 -13.85223180
496 1 6 -0.108400 -2.19189142 6.71280198 3.15938820
497 1 6 -0.108400 14.81972858 -10.29881802 -13.85223180
498 1 6 -0.108400 14.81972858 -10.29881802 3.15938820
499 1 6 -0.108400 14.81972858 6.71280198 -13.85223180
500 1 6 -0.108400 14.81972858 6.71280198 3.15938820
501 1 6 -0.108400 -14.81972758 -6.71280298 -13.85223180
502 1 6 -0.108400 -14.81972758 -6.71280298 3.15938820
503 1 6 -0.108400 -14.81972758 10.29881702 -13.85223180
504 1 6 -0.108400 -14.81972758 10.29881702 3.15938820
505 1 6 -0.108400 2.19189242 -6.71280298 -13.85223180
506 1 6 -0.108400 2.19189242 -6.71280298 3.15938820
507 1 6 -0.108400 2.19189242 10.29881702 -13.85223180
508 1 6 -0.108400 2.19189242 10.29881702 3.15938820
509 1 6 -0.108400 -14.81972758 -10.29881802 -3.15938819
510 1 6 -0.108400 -14.81972758 -10.29881802 13.85223181
511 1 6 -0.108400 -14.81972758 6.71280198 -3.15938819
512 1 6 -0.108400 -14.81972758 6.71280198 13.85223181
513 1 6 -0.108400 2.19189242 -10.29881802 -3.15938819
514 1 6 -0.108400 2.19189242 -10.29881802 13.85223181
515 1 6 -0.108400 2.19189242 6.71280198 -3.15938819
516 1 6 -0.108400 2.19189242 6.71280198 13.85223181
517 1 6 -0.108400 -2.19189142 -6.71280298 -3.15938819
518 1 6 -0.108400 -2.19189142 -6.71280298 13.85223181
519 1 6 -0.108400 -2.19189142 10.29881702 -3.15938819
520 1 6 -0.108400 -2.19189142 10.29881702 13.85223181
521 1 6 -0.108400 14.81972858 -6.71280298 -3.15938819
522 1 6 -0.108400 14.81972858 -6.71280298 13.85223181
523 1 6 -0.108400 14.81972858 10.29881702 -3.15938819
524 1 6 -0.108400 14.81972858 10.29881702 13.85223181
525 1 6 -0.108400 -13.85223180 -2.19189142 -10.29881802
526 1 6 -0.108400 -13.85223180 -2.19189142 6.71280198
527 1 6 -0.108400 -13.85223180 14.81972858 -10.29881802
528 1 6 -0.108400 -13.85223180 14.81972858 6.71280198
529 1 6 -0.108400 3.15938820 -2.19189142 -10.29881802
530 1 6 -0.108400 3.15938820 -2.19189142 6.71280198
531 1 6 -0.108400 3.15938820 14.81972858 -10.29881802
532 1 6 -0.108400 3.15938820 14.81972858 6.71280198
533 1 6 -0.108400 -13.85223180 -14.81972758 -6.71280298
534 1 6 -0.108400 -13.85223180 -14.81972758 10.29881702
535 1 6 -0.108400 -13.85223180 2.19189242 -6.71280298
536 1 6 -0.108400 -13.85223180 2.19189242 10.29881702
537 1 6 -0.108400 3.15938820 -14.81972758 -6.71280298
538 1 6 -0.108400 3.15938820 -14.81972758 10.29881702
539 1 6 -0.108400 3.15938820 2.19189242 -6.71280298
540 1 6 -0.108400 3.15938820 2.19189242 10.29881702
541 1 6 -0.108400 -3.15938819 -14.81972758 -10.29881802
542 1 6 -0.108400 -3.15938819 -14.81972758 6.71280198
543 1 6 -0.108400 -3.15938819 2.19189242 -10.29881802
544 1 6 -0.108400 -3.15938819 2.19189242 6.71280198
545 1 6 -0.108400 13.85223181 -14.81972758 -10.29881802
546 1 6 -0.108400 13.85223181 -14.81972758 6.71280198
547 1 6 -0.108400 13.85223181 2.19189242 -10.29881802
548 1 6 -0.108400 13.85223181 2.19189242 6.71280198
549 1 6 -0.108400 -3.15938819 -2.19189142 -6.71280298
550 1 6 -0.108400 -3.15938819 -2.19189142 10.29881702
551 1 6 -0.108400 -3.15938819 14.81972858 -6.71280298
552 1 6 -0.108400 -3.15938819 14.81972858 10.29881702
553 1 6 -0.108400 13.85223181 -2.19189142 -6.71280298
554 1 6 -0.108400 13.85223181 -2.19189142 10.29881702