LAMMPS data file via write_data, version 27 Jun 2024, timestep = 1000, units = real

4000 atoms
14 atom types
3000 bonds
12 bond types
3000 angles
16 angle types
0 dihedrals
12 dihedral types
0 impropers
4 improper types

-50 50 xlo xhi
-50 50 ylo yhi
-50 50 zlo zhi

Masses

1 12.011
2 12.011
3 12.011
4 1.008
5 1.008
6 14.007
7 65.38
8 1.008
9 15.035
10 15.9994
11 0.0001
12 15.999
13 1.00784
14 0.0001

Pair Coeffs # lj/cut/coul/long

1 0.086 3.4
2 0.086 3.4
3 0.1094 3.4
4 0.015 2.511
5 0.0157 2.65
6 0.17 3.25
7 0.0125 1.96
8 0.2195 3.6499
9 0.1791 3.1655
10 0 1
11 0.2108 3.637
12 0.1848 3.165
13 0 1
14 0 1

Bond Coeffs # harmonic

1 346.543 1.49
2 488 1.335
3 540.249 1.35
4 367 1.08
5 440.221 1.37
6 340 1.09
7 78.5 2.011
8 0 0.945
9 0 1.43
10 0 0.037
11 0 0.105
12 0 0.9572

Angle Coeffs # harmonic

1 48.088 109.32
2 71.254 105.27
3 48.68 128.33
4 49.451 125.67
5 76.75 108.65
6 32.477 126.4
7 66.015 123.92
8 49.954 125.68
9 35 109.5
10 75.484 112.16
11 35.24 109.48
12 0 108.5
13 0 127.53
14 0 123.97
15 0 52.26
16 0 104.52

Dihedral Coeffs # charmm

1 2.325 2 180 0
2 2.325 2 180 0
3 2.325 2 180 0
4 2.325 2 180 0
5 5 2 180 0
6 5 2 180 0
7 5 2 180 0
8 5 2 180 0
9 5.15 2 180 0
10 5.15 2 180 0
11 5.15 2 180 0
12 0 0 0 0

Improper Coeffs # harmonic

1 2 180
2 2 180
3 2 180
4 0 0

Atoms # full

904 226 11 -0.6544 -15.253547224190784 -9.652275332561741 -49.834724892977434 0 0 1
902 226 9 0.1546 -15.258155085493897 -9.637903405240962 -49.79013269389175 0 0 1
846 212 9 0.1546 10.520534764241503 -47.04412929787577 -0.8284040832311086 0 0 0
2580 645 13 0.527 26.301634704921014 -13.825015326770334 -0.5006636853918105 0 0 0
193 49 10 0 -1.216411384998711 -47.300614230224596 -48.75534429472478 0 0 0
194 49 9 0.1546 -2.003228587996886 -47.455589000845066 -48.25541779058917 0 0 0
195 49 8 0.4998 -2.8604908170494086 -46.32399222336096 -48.42212173123687 0 0 0
196 49 11 -0.6544 -2.0227527452526344 -47.498151071661646 -48.260268183486396 0 0 0
1 1 10 0 23.745691879568994 -44.71823865068973 -48.37067333070684 0 0 0
2 1 9 0.1546 23.539885747196095 -45.05386987567629 -47.511592125760686 0 0 0
3 1 8 0.4998 24.16589963976247 -44.205690453734505 -46.54624334189632 0 0 0
4 1 11 -0.6544 23.49482259636683 -45.065242286582134 -47.50409348538207 0 0 0
123 31 8 0.4998 -33.014052176415404 -39.30923457515363 -46.21997619645606 0 0 0
2333 584 12 0 45.87272624524605 -41.584642115852795 -45.49693093847405 0 0 0
2334 584 14 -1.054 45.954884000508926 -41.53167521558098 -45.45859543631535 0 0 0
2335 584 13 0.527 46.645802966460565 -41.203456884018614 -46.003931515645554 0 0 0
2336 584 13 0.527 46.057498311286295 -41.348304619276604 -44.54299003127496 0 0 0
121 31 10 0 -31.797708507120195 -37.8751361526424 -46.70132304927245 0 0 0
122 31 9 0.1546 -32.39724136458191 -38.040468245764636 -45.98981011769102 0 0 0
124 31 11 -0.6544 -32.38070518770443 -38.0322309898111 -45.9465094090521 0 0 0
2061 516 12 0 14.75757855273134 -36.774615194240035 -47.55250814712436 0 0 0
2062 516 14 -1.054 14.82412943761245 -36.70913239717469 -47.50446667535214 0 0 0
1511 378 8 0.4998 -13.786055038128065 -0.27990188959282736 -11.625052437006714 0 0 0
2064 516 13 0.527 15.6009578894236 -36.38153678847669 -47.91884138949735 0 0 0
417 105 10 0 -46.289825124912014 -28.61773709640772 -46.20641915923207 0 0 0
418 105 9 0.1546 -46.12014064020661 -28.615699343408483 -47.136057811189374 0 0 0
420 105 11 -0.6544 -46.15565670452882 -28.601534840664154 -47.16352096718183 0 0 0
419 105 8 0.4998 -45.49312845185255 -29.8556459281196 -47.471599437099904 0 0 0
113 29 10 0 -15.037615075895463 -29.67052587584827 -47.724438624386295 0 0 0
114 29 9 0.1546 -14.34804651794992 -29.565780480506696 -48.36205026641273 0 0 0
115 29 8 0.4998 -13.70171944873591 -30.83052306685242 -48.52294622622768 0 0 0
116 29 11 -0.6544 -14.359548669006863 -29.542457889208695 -48.40129317859073 0 0 0
219 55 8 0.4998 -15.24771460754219 -47.41208537916741 -6.975498146067881 0 0 0
475 119 8 0.4998 41.99845394082817 -47.61165623908737 -22.611938406946155 0 0 0
210 53 9 0.1546 48.75595664700049 -28.516957601836857 -44.820210676434385 -1 0 0
211 53 8 0.4998 48.62389930357661 -29.42494899216343 -45.91625469614376 -1 0 0
212 53 11 -0.6544 48.79787707124771 -28.496334849864436 -44.81441162202725 -1 0 0
357 90 10 0 49.800650296777775 -23.28301972561479 -45.64458353465271 -1 0 0
358 90 9 0.1546 -49.50947194148784 -23.917389273415623 -45.76569897828946 0 0 0
360 90 11 -0.6544 -49.50081885028959 -23.93028555212176 -45.81014061314067 0 0 0
301 76 10 0 -16.811983339182266 -25.532825228654804 -47.050334159139844 0 0 0
302 76 9 0.1546 -16.695951472628472 -26.06672914133968 -47.821377749323844 0 0 0
303 76 8 0.4998 -15.352545107145007 -25.8939585369622 -48.278115809311785 0 0 0
304 76 11 -0.6544 -16.712119465895405 -26.110854777303647 -47.81858971336706 0 0 0
2025 507 12 0 15.582916676632447 -28.35327541007196 -42.22354734944335 0 0 0
2026 507 14 -1.054 15.604929086806917 -28.403671585078676 -42.13410083278114 0 0 0
2027 507 13 0.527 16.435766662992318 -28.811419713334846 -41.97304768625351 0 0 0
2028 507 13 0.527 14.986701749527874 -28.48268264053836 -41.431221082994234 0 0 0
435 109 8 0.4998 45.40004496143447 -25.24512065393699 -45.206896747277 0 0 0
209 53 10 0 48.00740900236345 -27.940213648833474 -44.828446960936354 -1 0 0
359 90 8 0.4998 -49.70091679917984 -24.963407672422875 -44.810505607603915 0 0 0
2313 579 12 0 47.25245123318899 -21.90385797827544 -46.200348652645616 0 0 0
2314 579 14 -1.054 47.33040628675949 -21.974195194326402 -46.19952060613657 0 0 0
2315 579 13 0.527 47.80216506936813 -22.217439898398297 -46.974609888140336 0 0 0
2316 579 13 0.527 47.611588342169696 -22.410313276522572 -45.41643350995802 0 0 0
2277 570 12 0 -43.59347963441606 -15.792423965972125 -46.53637917916868 0 0 0
2278 570 14 -1.054 -43.58676417789079 -15.696876835605979 -46.49336001457368 0 0 0
2279 570 13 0.527 -43.99660728508162 -14.940718764697332 -46.87117124970622 0 0 0
2280 570 13 0.527 -43.11205880414738 -15.530178297313183 -45.70004158192847 0 0 0
233 59 10 0 -36.32679938169699 -16.443237761314553 -48.25368061643215 0 0 0
234 59 9 0.1546 -36.5888160362735 -15.560888060721528 -48.039598205692826 0 0 0
235 59 8 0.4998 -38.007869144124626 -15.474965132361408 -48.18827748293117 0 0 0
236 59 11 -0.6544 -36.57026004594049 -15.542773209022645 -48.00030728726771 0 0 0
3040 760 13 0.527 -23.526397068017186 -49.423430057311286 -9.97081180834994 0 1 0
318 80 9 0.1546 -18.417468194121174 -13.16335562134701 -49.50036544276232 0 0 0
1292 323 11 -0.6544 44.90112646710823 -0.9061512388084896 -45.399846930443815 0 0 0
320 80 11 -0.6544 -18.451290663733943 -13.190292234001916 -49.481745336748304 0 0 0
66 17 9 0.1546 -40.12060885238291 -9.37553428483638 -43.14051209034655 0 0 0
67 17 8 0.4998 -38.99704166841445 -8.691270705236137 -43.699600756607815 0 0 0
68 17 11 -0.6544 -40.15514310486971 -9.348985209103347 -43.122657654401934 0 0 0
2164 541 13 0.527 38.35672822882827 -33.24622139048074 -1.6340646886829648 0 0 0
2145 537 12 0 14.105391640745681 -8.358036834820272 -45.37936653387279 0 0 0
2146 537 14 -1.054 14.202458064697042 -8.38452337300047 -45.409392733041585 0 0 0
2147 537 13 0.527 14.478724353333467 -9.277632044250911 -45.501705078937505 0 0 0
2148 537 13 0.527 14.863722715313163 -7.74723899203263 -45.607093035834644 0 0 0
441 111 10 0 45.55836849144006 -3.9393684661358206 -45.68097440376949 0 0 0
442 111 9 0.1546 46.03213918769138 -4.557463646138662 -45.14569440616937 0 0 0
443 111 8 0.4998 46.23956695888815 -3.960752382906101 -43.86346611601675 0 0 0
444 111 11 -0.6544 46.01630969567858 -4.601794265834798 -45.14638160335619 0 0 0
2746 687 14 -1.054 -26.276091064333464 -5.428193019118788 -48.64211295120302 0 0 1
2049 513 12 0 49.49803420386337 -47.0892205309173 -29.272054407966852 -1 0 0
3343 836 13 0.527 3.899688155173347 -0.059787623314510485 -8.57867868369742 0 0 0
2309 578 12 0 -32.88656067204088 -2.4596068314428154 -43.921584560855614 0 0 0
2310 578 14 -1.054 -32.89455137213335 -2.5299670524806936 -43.99911254294939 0 0 0
2311 578 13 0.527 -33.17053371791451 -3.416004898960772 -43.85330990399327 0 0 0
2312 578 13 0.527 -32.69574842843599 -2.323514189462176 -44.8937310845822 0 0 0
2133 534 12 0 -13.568834763677875 -5.2386190541074225 -49.04744138211323 0 0 0
2134 534 14 -1.054 -13.556458852532067 -5.193689379417484 -49.14153262057658 0 0 0
2135 534 13 0.527 -12.767819991948988 -4.74840043074972 -49.39104059615466 0 0 0
2136 534 13 0.527 -14.225563077673655 -5.205018175875702 -49.80081929902002 0 0 0
2205 552 12 0 12.831702229462339 -6.179601080432633 -45.15981546642218 0 0 0
2206 552 14 -1.054 12.815238102490138 -6.272250168671688 -45.206399572848255 0 0 0
2207 552 13 0.527 13.432175902351899 -6.979243871750575 -45.16128433137694 0 0 0
2208 552 13 0.527 12.039279007767936 -6.4601218905432045 -45.70145454913211 0 0 0
319 80 8 0.4998 -17.98981346500578 -12.034516904676515 -48.734836485497496 0 0 0
2647 662 13 0.527 -30.546084371638656 -11.225520721572401 -49.98290851768736 0 0 1
467 117 8 0.4998 33.945701366875966 -27.894023222529825 -0.5273723154955521 0 0 0
492 123 11 -0.6544 36.971124686012274 -3.5214104570197304 -49.823021404155526 0 0 0
2265 567 12 0 -47.59658244486716 -47.973518921636554 -42.78345406647508 0 0 0
2266 567 14 -1.054 -47.596461238047496 -48.06435982857121 -42.730795591979536 0 0 0
2267 567 13 0.527 -47.969593704384536 -48.85294398196191 -43.07921333792662 0 0 0
2268 567 13 0.527 -47.22215807705767 -48.15317650374793 -41.873767895817906 0 0 0
2001 501 12 0 -25.92658512141345 -43.62484840212365 -37.427310602078485 0 0 0
2002 501 14 -1.054 -25.949906540987545 -43.681903735044685 -37.512315310032335 0 0 0
2003 501 13 0.527 -26.832760007308472 -43.889872957638545 -37.75686855487554 0 0 0
2004 501 13 0.527 -25.292306581574046 -44.025012193952996 -38.0887930710166 0 0 0
201 51 10 0 -6.910394655467398 -44.635284794392376 -44.3686637591095 0 0 0
202 51 9 0.1546 -6.508816132289797 -45.47732512020467 -44.519421111926626 0 0 0
203 51 8 0.4998 -6.392690732634153 -46.14141077432483 -43.25898264236669 0 0 0
204 51 11 -0.6544 -6.526164854018303 -45.50237093015618 -44.555309524517035 0 0 0
2344 586 13 0.527 -5.769135967381072 -44.42072397945891 -35.66395648568128 0 0 0
2950 738 14 -1.054 -3.3224515341545207 -48.52223424328315 -45.55989627227037 0 1 0
2343 586 13 0.527 -5.305010598626082 -42.95585721866993 -35.28954191641666 0 0 0
2341 586 12 0 -5.449916594422318 -43.86409331688179 -34.89697494710864 0 0 0
2342 586 14 -1.054 -5.46486801052319 -43.83393499365337 -34.99643313277793 0 0 0
513 129 10 0 49.129557400805126 -32.64208412592029 -42.44534983378439 0 0 0
2405 602 12 0 -8.866176993142833 -35.51476635132473 -40.41297053316237 0 0 0
2406 602 14 -1.054 -8.867155856071111 -35.61447928028873 -40.380086287317454 0 0 0
2407 602 13 0.527 -8.253605422323075 -35.947090861911235 -39.751267449238725 0 0 0
2408 602 13 0.527 -9.490160787504207 -36.24496031238074 -40.691287594652 0 0 0
2121 531 12 0 24.71802532540189 -40.33006058814504 -41.65624438707244 0 0 0
2122 531 14 -1.054 24.67716180733057 -40.249395028545116 -41.60287547865878 0 0 0
2123 531 13 0.527 23.911585770585003 -40.33307440322098 -41.06493605426296 0 0 0
2124 531 13 0.527 25.048051289044885 -39.38659497775426 -41.62534311790858 0 0 0
25 7 10 0 43.4675523944669 -36.876291943759966 -44.37434048979889 0 0 0
26 7 9 0.1546 44.288338053245695 -37.12334448890366 -44.772210999237686 0 0 0
27 7 8 0.4998 43.99683748764048 -37.897761278667076 -45.93776067899585 0 0 0
28 7 11 -0.6544 44.320274968571034 -37.08905165661125 -44.77671477463909 0 0 0
2247 562 13 0.527 12.621944634758103 -27.704910118076228 -38.17573208385401 0 0 0
2317 580 12 0 20.66940834858565 -28.686572894065158 -42.48363657911845 0 0 0
2318 580 14 -1.054 20.736796373424067 -28.646391834794255 -42.55341721098894 0 0 0
2319 580 13 0.527 20.534529703325973 -28.569664001988503 -43.4675773522907 0 0 0
2320 580 13 0.527 21.589940614254438 -28.335024745536206 -42.31324400230524 0 0 0
516 129 11 -0.6544 49.0333457684012 -31.918893041553808 -43.07942043409872 0 0 0
515 129 8 0.4998 47.672477099075394 -32.02917814578168 -43.57188800616091 0 0 0
514 129 9 0.1546 49.01690346030907 -31.9614224788201 -43.09113138497454 0 0 0
2187 547 13 0.527 17.367233531952788 -15.726094189574397 -42.904549436542226 0 0 0
2245 562 12 0 12.905536319134457 -28.420064726756177 -38.81458185128051 0 0 0
2246 562 14 -1.054 12.89704472763165 -28.426858109278278 -38.71014649889609 0 0 0
2248 562 13 0.527 13.090127481931294 -29.21442102722206 -38.23585604951256 0 0 0
402 101 9 0.1546 32.299296747089265 -25.013385691878707 -38.63649586822517 0 0 0
403 101 8 0.4998 30.954771746267472 -24.721319973117634 -39.02398798180901 0 0 0
404 101 11 -0.6544 32.30679244278066 -25.054190647633288 -38.61424684505631 0 0 0
433 109 10 0 45.06083534149571 -27.1526811852389 -45.088682310087165 0 0 0
434 109 9 0.1546 45.79540104988433 -26.58603340956939 -44.908825371415624 0 0 0
436 109 11 -0.6544 45.81753645055287 -26.593244454894762 -44.86790748092066 0 0 0
189 48 10 0 -43.954153981141 -15.203251106134955 -38.30897367331228 0 0 0
191 48 8 0.4998 -43.091058556125816 -16.816184653483624 -37.65986916773931 0 0 0
22 6 9 0.1546 4.363444203218609 -16.67116830306879 -39.065025328639024 0 0 0
24 6 11 -0.6544 4.369256958928976 -16.647854327254112 -39.02454176033329 0 0 0
2185 547 12 0 17.538114777802942 -16.68737582828962 -43.12073591620769 0 0 0
2186 547 14 -1.054 17.44537266962922 -16.63877771422974 -43.11285399503857 0 0 0
2188 547 13 0.527 16.62774793505316 -17.082068902526917 -43.24502980936171 0 0 0
129 33 10 0 21.688573050839985 -21.437500408825283 -39.19909837027444 0 0 0
130 33 9 0.1546 22.584713875591472 -21.165819834166864 -39.32616641333405 0 0 0
132 33 11 -0.6544 22.59093965310742 -21.125202355951004 -39.349138332228776 0 0 0
131 33 8 0.4998 23.32545427400129 -22.296308451533502 -39.791461102932075 0 0 0
190 48 9 0.1546 -43.83004030273166 -16.08053911821321 -38.63758672645456 0 0 0
192 48 11 -0.6544 -43.8681293421617 -16.101374583249957 -38.65578995067443 0 0 0
5 2 10 0 -43.53535567397377 -13.88639029926531 -44.181064725346445 0 0 0
6 2 9 0.1546 -43.287196904969676 -14.688180801677097 -43.74681339764711 0 0 0
7 2 8 0.4998 -42.57112767485453 -14.341903445282941 -42.55915315577194 0 0 0
8 2 11 -0.6544 -43.32091553900368 -14.720782239728804 -43.74275767874146 0 0 0
21 6 10 0 4.319984902162358 -17.612854941700753 -38.99897562179842 0 0 0
85 22 10 0 14.178546549630495 -17.489086144720673 -39.26798906042804 0 0 0
86 22 9 0.1546 13.710045834224433 -16.78327920800746 -39.68675946023147 0 0 0
87 22 8 0.4998 13.217158049991427 -15.914613441844464 -38.66417380667949 0 0 0
88 22 11 -0.6544 13.731543056046668 -16.763114809138035 -39.72346797929939 0 0 0
385 97 10 0 31.546658064572163 -9.728756810099247 -41.70649594358476 0 0 0
386 97 9 0.1546 30.83673633619561 -10.308280928840047 -41.93712104060702 0 0 0
387 97 8 0.4998 29.65796395344512 -9.845629365061765 -41.2740605605615 0 0 0
388 97 11 -0.6544 30.83281155283734 -10.319003337880199 -41.98279242026613 0 0 0
29 8 10 0 34.92096613549129 -14.117534810188355 -42.06339404088057 0 0 0
30 8 9 0.1546 34.31364538650569 -13.860366792723333 -41.38659930194956 0 0 0
31 8 8 0.4998 33.10003108199753 -13.446714180344165 -42.018447255309454 0 0 0
32 8 11 -0.6544 34.30981264590432 -13.889745146033402 -41.35001417715448 0 0 0
65 17 10 0 -40.38618403250092 -10.046058524626705 -43.751160980920226 0 0 0
261 66 10 0 -26.59951682121512 -7.845739512445105 -45.364173201810104 0 0 0
262 66 9 0.1546 -26.83753964139531 -8.476917293640836 -44.70236904225963 0 0 0
263 66 8 0.4998 -27.28107305537181 -7.758832038426364 -43.54875226146546 0 0 0
264 66 11 -0.6544 -26.864254127382168 -8.512901656193034 -44.71678121732692 0 0 0
2299 575 13 0.527 8.925892802028375 -8.06947624372581 -38.18091573067695 0 0 0
321 81 10 0 27.837768375050118 -7.134217090206116 -38.55049667737167 0 0 0
322 81 9 0.1546 28.698584654544828 -7.343643277185131 -38.87937508220286 0 0 0
324 81 11 -0.6544 28.72069759056666 -7.379368892118935 -38.85813956012085 0 0 0
339 85 8 0.4998 -32.51120055950851 -1.4365482734247519 -39.20043160497063 0 0 0
2201 551 12 0 20.075971620458663 -2.293399614720488 -40.6709047985889 0 0 0
2202 551 14 -1.054 20.07153265440264 -2.377068664553669 -40.73418817460793 0 0 0
2203 551 13 0.527 20.48802276199247 -3.1929676127691673 -40.526023271982304 0 0 0
2204 551 13 0.527 19.612168112519207 -2.369300063406268 -41.55358526796433 0 0 0
251 63 8 0.4998 -47.0347862447923 -4.505946002994797 -1.979004915728139 0 0 0
1290 323 9 0.1546 44.93568820189398 -0.8767459201792072 -45.412379393286756 0 0 0
2063 516 13 0.527 14.690092911894503 -36.40425236972155 -46.62607603973603 0 0 0
89 23 10 0 -18.764446634839 -47.55230438746185 -37.178158164907884 0 0 0
90 23 9 0.1546 -19.30053596381842 -48.262899252659565 -37.49547215594679 0 0 0
91 23 8 0.4998 -20.592130192861383 -47.735031618150224 -37.80585918521896 0 0 0
92 23 11 -0.6544 -19.280650286029864 -48.29108314380554 -37.52751083567554 0 0 0
2093 524 12 0 18.976510636170183 -43.522053145055494 -36.10036191439894 0 0 0
2095 524 13 0.527 19.881716619911348 -43.930966250321234 -35.98463990937998 0 0 0
253 64 10 0 -24.505636140839957 -46.67769239866619 -37.47941285717645 0 0 0
254 64 9 0.1546 -24.63754957786272 -47.45734045666753 -36.9619452245775 0 0 0
255 64 8 0.4998 -25.217850555409616 -47.065395259796155 -35.715819332820345 0 0 0
256 64 11 -0.6544 -24.657255161714335 -47.49383892145513 -36.98421181239907 0 0 0
2157 540 12 0 -17.985149307275652 -44.193152583130455 -36.17392480644601 0 0 0
2158 540 14 -1.054 -18.04560211221992 -44.21499564301688 -36.09089867134887 0 0 0
2159 540 13 0.527 -17.755763511577754 -44.09102273885751 -35.20596249584434 0 0 0
2160 540 13 0.527 -18.919333398846362 -44.54994309035843 -36.1739141903436 0 0 0
149 38 10 0 -11.884996557321891 -42.090005299793425 -37.3881639046099 0 0 0
150 38 9 0.1546 -11.879082432095197 -42.84386487255587 -37.95797595053139 0 0 0
151 38 8 0.4998 -13.119156893847927 -43.534039156453645 -37.78746264561092 0 0 0
152 38 11 -0.6544 -11.864692933439436 -42.83627183442337 -38.0021521545371 0 0 0
57 15 10 0 1.6481514197329554 -41.30848114184261 -35.689004735677074 0 0 0
58 15 9 0.1546 1.6223446431910078 -41.312485379578945 -34.744365663668795 0 0 0
59 15 8 0.4998 0.6044304205884842 -42.22910940122875 -34.33589162733598 0 0 0
60 15 11 -0.6544 1.6639546207982412 -41.31557587418157 -34.72256411540642 0 0 0
2094 524 14 -1.054 19.009950961328958 -43.582905231636204 -36.02159791112302 0 0 0
2096 524 13 0.527 18.461173810809125 -43.82259342184421 -35.29780171007839 0 0 0
153 39 10 0 21.441243532464885 -40.665630001325894 -37.941268010927274 0 0 0
154 39 9 0.1546 21.375581287487595 -39.76746993687638 -37.65487323406747 0 0 0
155 39 8 0.4998 20.01224593587587 -39.51501195983761 -37.30733663329681 0 0 0
156 39 11 -0.6544 21.408470746459066 -39.753019228560625 -37.62444776089553 0 0 0
2173 544 12 0 41.49174045894015 -40.85460730755719 -34.30601911549075 0 0 0
2174 544 14 -1.054 41.53998694005484 -40.939985417330405 -34.3435405151395 0 0 0
2175 544 13 0.527 41.13594347298694 -41.78801697620605 -34.352433319824065 0 0 0
2176 544 13 0.527 42.4100264427628 -40.91659142300955 -34.6970539022437 0 0 0
2303 576 13 0.527 -48.46415664899573 -32.11584161644583 -40.65883926912585 0 0 0
421 106 10 0 -36.00447887574394 -34.415496943352025 -33.87239089273605 0 0 0
422 106 9 0.1546 -36.7431725232716 -34.250196301287446 -34.438104948452654 0 0 0
423 106 8 0.4998 -36.36852317768322 -34.61415179246133 -35.768659069221364 0 0 0
424 106 11 -0.6544 -36.78489751722334 -34.26556185389297 -34.42263971089049 0 0 0
2301 576 12 0 -48.22519465106882 -32.52353799619599 -41.540133889891166 0 0 0
2302 576 14 -1.054 -48.313144314964084 -32.47203934651063 -41.51488026240332 0 0 0
2304 576 13 0.527 -49.01160729527996 -32.33082947212972 -42.12700522236663 0 0 0
2169 543 12 0 -29.245326611175386 -29.160546526119216 -38.0434963367017 0 0 0
2170 543 14 -1.054 -29.32097021900939 -29.188511627368058 -37.97625797186438 0 0 0
2172 543 13 0.527 -29.471328950600547 -28.737559147044035 -37.165997617145976 0 0 0
2171 543 13 0.527 -29.901226872369502 -29.9095693260862 -38.13708626991887 0 0 0
307 77 8 0.4998 24.34014577433174 -25.808288848507058 -34.16121706155821 0 0 0
225 57 10 0 -15.636336467635049 -22.794635900580648 -33.328325094341565 0 0 0
305 77 10 0 24.559601189521782 -27.47148323875855 -35.13766406010944 0 0 0
306 77 9 0.1546 24.091496261632063 -26.662943313089382 -35.279670979251605 0 0 0
308 77 11 -0.6544 24.09566013941667 -26.643900304445836 -35.32252275685297 0 0 0
401 101 10 0 32.86038932002802 -24.834604777946222 -39.37557469311896 0 0 0
2115 529 13 0.527 -36.749133798374544 -22.387796334552355 -28.028672313521987 0 0 0
2189 548 12 0 -33.4974503480121 -15.967330432015823 -37.132620812574544 0 0 0
2190 548 14 -1.054 -33.40699810573881 -15.984638044967753 -37.08218433369627 0 0 0
2191 548 13 0.527 -33.15044920729723 -15.499091344392003 -36.320006667811946 0 0 0
2192 548 13 0.527 -32.789900152839905 -16.637352979073704 -37.35721353474139 0 0 0
226 57 9 0.1546 -15.319289085796305 -23.561629945443865 -32.87641128307488 0 0 0
228 57 11 -0.6544 -15.294485920114111 -23.553732354972098 -32.83718527210152 0 0 0
23 6 8 0.4998 3.299410369595665 -16.24025041951927 -39.916695322558525 0 0 0
2273 569 12 0 23.695215368755616 -16.39746611247366 -39.26184364192011 0 0 0
2274 569 14 -1.054 23.59977911593445 -16.436921319212537 -39.28082279650208 0 0 0
2275 569 13 0.527 22.944524244155513 -15.968754387739143 -39.764505034535745 0 0 0
2276 569 13 0.527 23.333248306281373 -17.286172414771798 -38.980453633135426 0 0 0
2325 582 12 0 -47.411284396999555 -13.471296492822681 -39.64504305718239 0 0 0
2326 582 14 -1.054 -47.30950378742712 -13.449100235083668 -39.658197283022275 0 0 0
2327 582 13 0.527 -47.003184530939514 -12.59138929773187 -39.88838892308869 0 0 0
2328 582 13 0.527 -46.63275941999922 -14.092425213637055 -39.555057750211695 0 0 0
313 79 10 0 -32.91844814911402 -15.808614162968922 -34.62574323667699 0 0 0
314 79 9 0.1546 -32.80011516038618 -16.14262199834429 -33.749694682265414 0 0 0
315 79 8 0.4998 -34.05282050685045 -16.0442248508886 -33.06833771538796 0 0 0
316 79 11 -0.6544 -32.776918513169214 -16.183428433662325 -33.74608922882281 0 0 0
477 120 10 0 -10.66151221782543 -12.655897582890475 -38.06553045644119 0 0 0
478 120 9 0.1546 -11.058475687982781 -12.195007106922226 -37.342325801780845 0 0 0
479 120 8 0.4998 -11.618547838701225 -13.166365491282427 -36.45576950062297 0 0 0
480 120 11 -0.6544 -11.032647124076657 -12.160727610320487 -37.322985421761864 0 0 0
241 61 10 0 -10.674055128739415 -6.3422258711114425 -36.16121852293975 0 0 0
242 61 9 0.1546 -10.838312043791204 -7.263304117251334 -36.02832935729589 0 0 0
244 61 11 -0.6544 -10.854346853306541 -7.275513244507375 -35.98578442815677 0 0 0
2297 575 12 0 7.996559226989808 -7.735371701171597 -38.33811828808356 0 0 0
2298 575 14 -1.054 8.075056426044629 -7.6861449990603745 -38.28872272613918 0 0 0
2300 575 13 0.527 7.98239728336904 -6.827350103959395 -37.91943511257542 0 0 0
512 128 11 -0.6544 18.79861319826312 -7.6982633800091715 -33.844726642801724 0 0 0
511 128 8 0.4998 18.023652953687858 -7.279782910521597 -32.69105365408902 0 0 0
509 128 10 0 18.193249617165716 -7.621236529326699 -34.594332771281785 0 0 0
510 128 9 0.1546 18.771912220862326 -7.659647672583435 -33.84821000982978 0 0 0
323 81 8 0.4998 29.425181357013567 -6.120807082114185 -39.020544738949404 0 0 0
373 94 10 0 -40.747955445407065 -1.5665029026204595 -36.92887765906507 0 0 0
374 94 9 0.1546 -40.18319827344763 -2.130305020855557 -36.42271413984033 0 0 0
375 94 8 0.4998 -39.01829564740108 -1.381979470582689 -36.06745262681281 0 0 0
376 94 11 -0.6544 -40.20399809690445 -2.1550785505472208 -36.38851050741947 0 0 0
337 85 10 0 -33.99771567328722 -2.0307434468519627 -38.10269306033295 0 0 0
338 85 9 0.1546 -33.770355727062345 -2.088083633334 -39.018140796616585 0 0 0
340 85 11 -0.6544 -33.77569460965651 -2.130358124106325 -39.0381561073208 0 0 0
243 61 8 0.4998 -9.713909807871444 -7.987935605645479 -36.53214362653238 0 0 0
405 102 10 0 41.043501518462435 -2.255599728061599 -35.60905768382688 0 0 0
406 102 9 0.1546 41.923741095123276 -2.028547094726613 -35.35089031684266 0 0 0
407 102 8 0.4998 42.25232594152654 -2.7927969864236024 -34.18849877275984 0 0 0
408 102 11 -0.6544 41.955720965168354 -2.0272437962861876 -35.385413326923974 0 0 0
2757 690 12 0 49.25806833112685 -36.00893238274877 -1.5061237250070694 0 0 0
381 96 10 0 -18.214104968172435 -13.085160058527022 -0.7041506416728872 0 0 0
2758 690 14 -1.054 49.33227004660611 -35.93955451441325 -1.4795565120340277 0 0 0
2389 598 12 0 -25.368706598152286 -44.612326950686295 -32.91615533441869 0 0 0
2390 598 14 -1.054 -25.39469344735211 -44.51063933783221 -32.919207065190314 0 0 0
2391 598 13 0.527 -25.786006054047828 -44.06517723671645 -32.19056058683815 0 0 0
2392 598 13 0.527 -25.254378808303162 -43.97393603809614 -33.677329153132256 0 0 0
2165 542 12 0 23.21946612702435 -47.929579004858496 -28.17187055479881 0 0 0
2166 542 14 -1.054 23.12820363423429 -47.98073245491245 -28.16295528938935 0 0 0
2167 542 13 0.527 22.654665507842566 -48.03567453617816 -27.353492047071267 0 0 0
2168 542 13 0.527 22.720268980430934 -48.41986381452184 -28.88630907374279 0 0 0
265 67 10 0 -37.08071569598404 -43.52246913867092 -29.92231535175906 0 0 0
266 67 9 0.1546 -37.32818166069492 -44.361967316583524 -29.565904906357794 0 0 0
267 67 8 0.4998 -37.70437259766412 -44.16680026190847 -28.20077114012399 0 0 0
268 67 11 -0.6544 -37.35693388131906 -44.38806130434097 -29.592525622202697 0 0 0
2089 523 12 0 36.18896029886591 -38.948607415028896 -29.561925558018103 0 0 0
2090 523 14 -1.054 36.211133633677534 -39.04703265742443 -29.591008454756764 0 0 0
2091 523 13 0.527 36.92568073194608 -39.535066991453235 -29.22531368685659 0 0 0
2092 523 13 0.527 35.710751089598354 -39.50965361894343 -30.23760484018479 0 0 0
2213 554 12 0 47.128499856215505 -45.757977717841065 -29.86860161132088 0 0 0
2214 554 14 -1.054 47.074765097514955 -45.74569764089418 -29.957970372180434 0 0 0
2215 554 13 0.527 47.34035872744853 -45.14669076682827 -30.631126014409613 0 0 0
2216 554 13 0.527 46.29016606134243 -46.226095508823406 -30.14799660992324 0 0 0
2249 563 12 0 -32.31776220878096 -36.188314555309375 -28.214185732567138 0 0 0
2250 563 14 -1.054 -32.34193250041905 -36.09916344765312 -28.26411445181562 0 0 0
2251 563 13 0.527 -32.4693120216721 -35.28444957715308 -27.814110566404956 0 0 0
137 35 10 0 -17.103466974540485 -32.82432101995802 -29.31434918669086 0 0 0
138 35 9 0.1546 -16.167715435514296 -32.75125836569928 -29.4241485754085 0 0 0
140 35 11 -0.6544 -16.149348527947346 -32.77431063318317 -29.460856865620357 0 0 0
2345 587 12 0 34.25470555638904 -34.906310182018984 -29.548342608296764 0 0 0
2346 587 14 -1.054 34.319712692283225 -34.950915301536085 -29.617692846909907 0 0 0
2347 587 13 0.527 34.67002661521876 -34.48685645367527 -30.355539220638274 0 0 0
2197 550 12 0 43.46159356809331 -34.64874027125394 -27.211824806227604 0 0 0
2198 550 14 -1.054 43.48149752527448 -34.61405180651734 -27.308910041473478 0 0 0
2199 550 13 0.527 44.052999785420305 -35.06621397609507 -27.901718837929344 0 0 0
2200 550 13 0.527 43.102240687503 -33.82684578138318 -27.65381387604267 0 0 0
2129 533 12 0 -34.347370464045895 -35.43404440271304 -30.403261559806506 0 0 0
2130 533 14 -1.054 -34.451957612106135 -35.433219691402535 -30.412526996217153 0 0 0
2131 533 13 0.527 -34.97414621530494 -36.21013449615531 -30.333722307589348 0 0 0
2132 533 13 0.527 -34.9399400151432 -34.64833928600147 -30.580823323117436 0 0 0
139 35 8 0.4998 -15.557061668473859 -32.965968412144285 -28.14970690441886 0 0 0
2057 515 12 0 -6.63653231341195 -29.592388220137245 -29.456410004827312 0 0 0
2058 515 14 -1.054 -6.5523499494845705 -29.651520288830895 -29.43539267731861 0 0 0
2059 515 13 0.527 -6.536019607109503 -30.280864585534832 -28.738150390714708 0 0 0
2060 515 13 0.527 -5.755592021904571 -29.593312144521754 -29.929635883522817 0 0 0
2293 574 12 0 16.41226457847125 -27.299974251890315 -34.41172810057205 0 0 0
2294 574 14 -1.054 16.49503775272655 -27.241228929768187 -34.43860911157367 0 0 0
2295 574 13 0.527 16.470495457431163 -26.302150029586006 -34.44263714816072 0 0 0
2348 587 13 0.527 34.597280159142535 -35.84579953570449 -29.549676386529825 0 0 0
309 78 10 0 -22.148383844049256 -23.411695792158465 -29.63170195391908 0 0 0
310 78 9 0.1546 -21.78962909328059 -23.944916991350713 -28.93888510832935 0 0 0
311 78 8 0.4998 -20.43563293153978 -23.538632810793363 -28.727159912332255 0 0 0
312 78 11 -0.6544 -21.816656633936237 -23.950107337731417 -28.90069058973629 0 0 0
2357 590 12 0 -8.073811399362155 -24.12765281816378 -31.92584850935567 0 0 0
2358 590 14 -1.054 -8.051277989912286 -24.228276181427056 -31.945652151044804 0 0 0
2359 590 13 0.527 -7.211212790812076 -24.50740600134194 -32.26007978182731 0 0 0
2360 590 13 0.527 -8.673700798718132 -24.92103254450621 -31.82250103007518 0 0 0
2296 574 13 0.527 17.319057443453435 -27.61290712861771 -34.69421544150081 0 0 0
33 9 10 0 25.50965418170446 -24.60408448429465 -29.391546006383358 0 0 0
34 9 9 0.1546 25.89703544041119 -24.285473335827483 -28.590641707184496 0 0 0
35 9 8 0.4998 25.013887884456214 -23.30997308734795 -28.032385798458836 0 0 0
36 9 11 -0.6544 25.91397589873587 -24.318253663686697 -28.561406114541413 0 0 0
2113 529 12 0 -37.10443941143194 -22.646442416618846 -28.926925901695203 0 0 0
2114 529 14 -1.054 -37.09042857907534 -22.708165881747686 -28.843146963833924 0 0 0
2116 529 13 0.527 -37.2963975871323 -23.624700981154565 -28.848429896708875 0 0 0
2373 594 12 0 -38.24964038943814 -20.023868580971627 -30.608507619075496 0 0 0
2374 594 14 -1.054 -38.30564453472674 -20.108874442262017 -30.582767781143374 0 0 0
2375 594 13 0.527 -37.94132554263935 -20.83020447388412 -30.103766332722824 0 0 0