LAMMPS data file via write_data, version 27 Jun 2024, timestep = 1000, units = real

28 atoms
14 atom types
21 bonds
12 bond types
21 angles
16 angle types
0 dihedrals
12 dihedral types
0 impropers
4 improper types

-50 50 xlo xhi
-50 50 ylo yhi
-50 50 zlo zhi

Masses

1 12.011
2 12.011
3 12.011
4 1.008
5 1.008
6 14.007
7 65.38
8 1.008
9 15.035
10 15.9994
11 0.0001
12 15.999
13 1.00784
14 0.0001

Pair Coeffs # lj/cut/coul/long

1 0.086 3.4
2 0.086 3.4
3 0.1094 3.4
4 0.015 2.511
5 0.0157 2.65
6 0.17 3.25
7 0.0125 1.96
8 0.2195 3.6499
9 0.1791 3.1655
10 0 1
11 0.2108 3.637
12 0.1848 3.165
13 0 1
14 0 1

Bond Coeffs # harmonic

1 346.543 1.49
2 488 1.335
3 540.249 1.35
4 367 1.08
5 440.221 1.37
6 340 1.09
7 78.5 2.011
8 0 0.945
9 0 1.43
10 0 0.037
11 0 0.105
12 0 0.9572

Angle Coeffs # harmonic

1 48.088 109.32
2 71.254 105.27
3 48.68 128.33
4 49.451 125.67
5 76.75 108.65
6 32.477 126.4
7 66.015 123.92
8 49.954 125.68
9 35 109.5
10 75.484 112.16
11 35.24 109.48
12 0 108.5
13 0 127.53
14 0 123.97
15 0 52.26
16 0 104.52

Dihedral Coeffs # charmm

1 2.325 2 180 0
2 2.325 2 180 0
3 2.325 2 180 0
4 2.325 2 180 0
5 5 2 180 0
6 5 2 180 0
7 5 2 180 0
8 5 2 180 0
9 5.15 2 180 0
10 5.15 2 180 0
11 5.15 2 180 0
12 0 0 0 0

Improper Coeffs # harmonic

1 2 180
2 2 180
3 2 180
4 0 0

Atoms # full

6 2 9 0.1546 23.702126738568417 -45.516053186155126 -48.05524095121651 0 0 0
7 2 8 0.4998 23.69515659014201 -45.77584075035666 -46.649658567107636 0 0 0
8 2 11 -0.6544 23.687750583653717 -45.550833807738776 -48.08352316174051 0 0 0
5 2 10 0 23.299942641067002 -44.672772858594854 -48.19719601758203 0 0 0
28 7 13 0.527 42.89022958517382 -31.061929031020888 49.520200036273465 0 0 0
21 6 12 0 -24.757894828130535 -45.67074615514395 -40.459121800598425 0 0 0
22 6 14 -1.054 -24.705402028615353 -45.58079585489148 -40.47248029914983 0 0 0
23 6 13 0.527 -23.7676471496457 -45.5420756200036 -40.51253351978614 0 0 0
24 6 13 0.527 -25.13614715457166 -44.75071732241143 -40.56145218507537 0 0 0
2 1 9 0.1546 -44.385190360988 44.89093938827884 -43.58646963840452 0 0 0
4 1 11 -0.6544 -44.36380496746826 44.853242730067734 -43.56808824009752 0 0 0
3 1 8 0.4998 -43.74870671684202 46.156689775027054 -43.3968264756451 0 0 0
1 1 10 0 -45.30115322843881 44.9916404375578 -43.37695514218667 0 0 0
17 5 12 0 10.468509357612211 45.94131868778052 -42.69901044493137 0 0 0
18 5 14 -1.054 10.504710438318066 45.91600752750244 -42.60375380778148 0 0 0
19 5 13 0.527 10.590370470247175 45.02661974156681 -42.31368578944279 0 0 0
20 5 13 0.527 10.76870409521878 46.56092359084752 -41.97377099019028 0 0 0
13 4 12 0 -19.639947862352894 32.73579272760033 -25.77864243341173 0 0 0
14 4 14 -1.054 -19.649718680881495 32.65928746477447 -25.70739304137764 0 0 0
15 4 13 0.527 -19.473472664638123 32.791327357339554 -24.794162216977668 0 0 0
16 4 13 0.527 -19.92033764607554 31.7883097603989 -25.93245068790952 0 0 0
9 3 10 0 43.41359567302426 -8.564720590144168 35.36318563631706 0 0 0
10 3 9 0.1546 44.34792648505522 -8.475541606454518 35.253194534142196 0 0 0
12 3 11 -0.6544 44.36596574416295 -8.49404196157657 35.213842648657476 0 0 0
11 3 8 0.4998 44.97265254633502 -8.836283598058124 36.48720529740631 0 0 0
25 7 12 0 41.935546216722436 -31.25325782407832 49.29222560337809 0 0 0
26 7 14 -1.054 42.01437691208883 -31.3219691566276 49.301684686174674 0 0 0
27 7 13 0.527 41.89992259757349 -32.24566822339916 49.17453133765938 0 0 0

Velocities

6 0.001116925123564932 0.0009694905480387627 -0.0009197591697309665
7 -0.032349086409083794 -0.0177668576134336 -0.004548670129480196
8 0.0020109874813995033 0.0012664195033618199 -0.0017393751814385359
5 -9.978019703189714e-06 0.0006394390174005379 0.0003122966156404716
28 -0.0015260334422365612 -0.002838267810692968 0.005362940198808122
21 1.3106234795505446e-05 -0.0012769680679520234 -0.0005339934280224178
22 -0.0008580086756852416 -0.0007797142694185306 -0.0006087871533003274
23 -0.0012585330395580778 0.00818228385912946 -0.001322412757229724
24 -0.008871281245643459 -0.004938910339248128 -0.0006175682133388368
2 0.0007847543555615626 0.0009250334816007445 0.0006064847436964769
4 0.0007969860147719664 0.0009393751603551202 0.0006216660977971034
3 -0.0004175445006739802 0.001406872241827685 0.0014256862271630505
1 0.0004983486856366076 0.00015739435733212932 -0.0002766755947881663
17 0.0032356238273028833 -0.00019314895514685777 0.00022742977250504942
18 -0.00018996243456412677 0.00016017493600962133 0.0016231641417610938
19 -0.01822759095430206 0.0014662191001730213 0.01095436714003599
20 -0.01523888408162967 0.002266763750911426 0.005772875561548276
13 -0.00013022567053993841 4.910523749370921e-05 0.0002851989108533845
14 -0.00014175155066632782 -0.00018464505309008102 3.26249002397969e-05
15 0.00012326670655618514 -0.003292551824016937 0.0004308366714064019
16 -0.000518094288391181 0.0006655486945219124 -0.002805111680453069
9 0.00010170866352150535 0.00021488798545144807 -0.0001903154080238301
10 0.00010930681411226867 0.0005630159758187826 0.00015648434061070476
12 0.00011534997051138376 0.000666708079488017 0.00011050619611178817
11 -1.8137053303896486e-05 -0.002610080765635266 -0.0007065970557951712
25 -0.0005286144581640166 -0.0007511422099840541 -0.0005655602933279355
26 -0.0007552746371287151 -0.000932539939162121 5.7107212755534145e-06
27 -0.002173747925112426 -0.0007788698492162198 0.00016618993318008295

Bonds

1 9 6 7
2 10 6 8
3 8 5 6
4 11 21 22
5 12 21 23
6 12 21 24
7 9 2 3
8 10 2 4
9 8 1 2
10 11 17 18
11 12 17 19
12 12 17 20
13 11 13 14
14 12 13 15
15 12 13 16
16 8 9 10
17 9 10 11
18 10 10 12
19 11 25 26
20 12 25 27
21 12 25 28

Angles

1 12 7 6 5
2 13 8 6 7
3 13 8 6 5
4 15 22 21 23
5 15 22 21 24
6 16 23 21 24
7 12 3 2 1
8 13 4 2 3
9 13 4 2 1
10 15 18 17 19
11 15 18 17 20
12 16 19 17 20
13 15 14 13 15
14 15 14 13 16
15 16 15 13 16
16 12 11 10 9
17 13 12 10 11
18 13 12 10 9
19 15 26 25 27
20 15 26 25 28
21 16 27 25 28
