LAMMPS data file via write_data, version 22 Jul 2025, timestep = 200, units = real

14904 atoms
14 atom types
11928 bonds
12 bond types
14928 angles
16 angle types
4500 dihedrals
15 dihedral types
0 impropers
7 improper types

-100 100 xlo xhi
-100 100 ylo yhi
-100 100 zlo zhi

Masses

1 12.011
2 12.011
3 12.011
4 1.008
5 1.008
6 14.007
7 65.38
8 1.008
9 1.008
10 12.011
11 15.9994
12 15.999
13 1.00784
14 0.0001

Pair Coeffs # lj/cut/coul/long

1 0.086 3.4
2 0.086 3.4
3 0.1094 3.4
4 0.015 2.511
5 0.0157 2.65
6 0.17 3.25
7 0.0125 1.96
8 0 1
9 0.03 2.5
10 0.066 3.5
11 0.17 3.12
12 0.1848 3.165
13 0 1
14 0 1

Bond Coeffs # harmonic

1 346.543 1.49
2 488 1.335
3 540.249 1.35
4 367 1.08
5 440.221 1.37
6 340 1.09
7 78.5 2.011
8 340 1.09
9 320 1.41
10 553 0.945
11 0 0.9572
12 0 0.105

Angle Coeffs # harmonic

1 48.088 109.32
2 71.254 105.27
3 48.68 128.33
4 49.451 125.67
5 76.75 108.65
6 32.477 126.4
7 66.015 123.92
8 49.954 125.68
9 35 109.5
10 75.484 112.16
11 35.24 109.48
12 55 108.6
13 35 109.5
14 33 107.8
15 0 104.52
16 0 52.26

Improper Coeffs # harmonic

1 0 0
2 2 180
3 2 180
4 2 180
5 0 0
6 0 0
7 2 180

Atoms # full

9977 1745 12 0 -16.294217391684768 -95.10858735123536 -93.76976459222678 0 0 0
9978 1745 14 -1.054 -16.37872244489072 -95.16952049345328 -93.75668605400146 0 0 0
9979 1745 13 0.527 -16.88150416444582 -95.17572016593277 -92.9631749723858 0 0 0
9980 1745 13 0.527 -16.692145739166808 -95.75185291816727 -94.42387606879208 0 0 0
9225 1557 12 0 64.91424846155883 -95.59878116152845 -93.519008850697 0 0 0
9226 1557 14 -1.054 64.96634977801433 -95.5217762707973 -93.47021643707471 0 0 0
9227 1557 13 0.527 65.71107904870598 -95.09344984340126 -93.85021974636783 0 0 0
913 153 8 0.418 -53.44513139147665 -86.11296945994836 -96.32834194638215 0 0 0
914 153 11 -0.6830000000000001 -54.17329225884839 -85.81789390425986 -96.84679805166644 0 0 0
559 94 8 0.418 -22.769404333431055 -92.34024160005436 -99.41216962779407 0 0 0
560 94 11 -0.6830000000000001 -22.295114279765126 -91.59852249447748 -99.07933264429565 0 0 0
561 94 10 0.145 -20.920843488561836 -91.76568208894344 -99.34031350270871 0 0 0
562 94 9 0.04 -20.521547302190704 -92.6540775027193 -98.86181904039441 0 0 0
564 94 9 0.04 -20.392417291488197 -90.90574973978691 -98.95292588395125 0 0 0
10397 1850 12 0 11.072331649387811 -88.92701885347833 -96.9052512929863 0 0 0
10398 1850 14 -1.054 11.073184403640802 -88.82555357658153 -96.93225259655556 0 0 0
10399 1850 13 0.527 10.420699880935667 -88.4437192494669 -97.48988529320421 0 0 0
10400 1850 13 0.527 11.733905384054095 -88.22736996877929 -96.63541613063052 0 0 0
1795 300 8 0.418 87.23849913606169 -90.11338751665492 -98.99794820684023 0 0 0
1796 300 11 -0.6830000000000001 87.61508665319357 -90.14537264984787 -99.86007412153788 0 0 0
1797 300 10 0.145 88.95550360103863 -90.57010860872384 -99.77168976278077 0 0 0
1798 300 9 0.04 89.56047174953844 -89.8831851678889 -99.1893051349688 0 0 0
1799 300 9 0.04 89.03899456673264 -91.55447484727495 -99.32405008654338 0 0 0
915 153 10 0.145 -53.69587626659693 -85.09727625942838 -97.9586478388688 0 0 0
916 153 9 0.04 -53.14783220236153 -84.20916533215254 -97.6618455962683 0 0 0
917 153 9 0.04 -53.045943881269004 -85.70064190130833 -98.58286950603488 0 0 0
918 153 9 0.04 -54.543330174336 -84.78745299828218 -98.55410638736126 0 0 0
9877 1720 12 0 -36.28303730415144 -82.92873992190353 -94.37950508250498 0 0 0
9878 1720 14 -1.054 -36.314551446976886 -82.84301653854122 -94.43130624414154 0 0 0
9879 1720 13 0.527 -36.35640978210638 -81.99472634338574 -94.02988457720299 0 0 0
9880 1720 13 0.527 -36.57707729249545 -82.86333429123981 -95.33305737359163 0 0 0
1699 284 8 0.418 3.975290757389174 -82.8438600964432 -93.45227404273463 0 0 0
1700 284 11 -0.6830000000000001 4.519009046781188 -82.25310183001513 -93.94383184657973 0 0 0
1701 284 10 0.145 3.9248509562886436 -82.00046811621156 -95.19575031331345 0 0 0
1702 284 9 0.04 3.8220184126926324 -82.90502006452488 -95.78611197739492 0 0 0
1703 284 9 0.04 2.9427790132591927 -81.55200954155505 -95.09355561685966 0 0 0
1704 284 9 0.04 4.55544087454835 -81.31145171006372 -95.74008094018238 0 0 0
593 99 9 0.04 95.30227613265492 -79.57807646968104 -93.09719168949758 0 0 0
9627 1657 13 0.527 -78.80040462624052 -75.36881459733529 -96.70938007690592 0 0 0
9625 1657 12 0 -77.9984541221617 -75.84963693546143 -96.35485976539879 0 0 0
9626 1657 14 -1.054 -78.09813638871226 -75.88262422392008 -96.35539318408046 0 0 0
9628 1657 13 0.527 -78.35866460727674 -76.71504663413364 -96.00655839738286 0 0 0
1681 281 8 0.418 -39.61567242610803 -75.21392446233435 -98.54612772232962 0 0 0
1682 281 11 -0.6830000000000001 -39.48020863929594 -75.34648428547023 -97.62394374700001 0 0 0
1683 281 10 0.145 -40.54322863382695 -76.1069440955687 -97.09944069887241 0 0 0
1684 281 9 0.04 -41.4969112557205 -75.60155051124222 -97.20974185146223 0 0 0
1685 281 9 0.04 -40.62015803363633 -77.07780064259066 -97.57661120366419 0 0 0
1686 281 9 0.04 -40.36415929826194 -76.26284498582478 -96.0447659104622 0 0 0
1129 189 8 0.418 -17.620611598982194 -74.81049384510673 -94.47756157619123 0 0 0
1130 189 11 -0.6830000000000001 -17.13129791311732 -75.35920779348353 -93.89008892496219 0 0 0
1131 189 10 0.145 -17.759328239758677 -76.6163309251395 -93.79072646877299 0 0 0
1132 189 9 0.04 -18.75502930006848 -76.53967375664496 -93.3668829344373 0 0 0
1133 189 9 0.04 -17.841030767117527 -77.10514718586663 -94.75539656849804 0 0 0
1134 189 9 0.04 -17.16467350387762 -77.24498442053975 -93.14278649887666 0 0 0
109 19 8 0.418 31.215690250922123 -77.09388186428745 -97.10924067588239 0 0 0
110 19 11 -0.6830000000000001 31.22944925153566 -76.95212464454491 -96.17880632226388 0 0 0
111 19 10 0.145 30.162202763739433 -76.10727029557265 -95.81729754718069 0 0 0
112 19 9 0.04 30.246900639952706 -75.127714068165 -96.27609134988768 0 0 0
113 19 9 0.04 29.201914575575863 -76.5272015051965 -96.09582657730793 0 0 0
114 19 9 0.04 30.176293380052286 -75.97987150457922 -94.74386475314608 0 0 0
9265 1567 12 0 97.95475023355837 -71.63421208401444 -96.64435988206613 0 0 0
9266 1567 14 -1.054 97.92959355724881 -71.56727729317889 -96.72124860303909 0 0 0
9267 1567 13 0.527 97.38745909739967 -71.81114900284875 -97.44864433217919 0 0 0
9745 1687 12 0 -49.828209724112895 -68.93671638152458 -94.32124003923334 0 0 0
9746 1687 14 -1.054 -49.734795546753524 -68.93993385666381 -94.27340240423746 0 0 0
9747 1687 13 0.527 -49.36769577137897 -69.73381207032232 -93.9306446663192 0 0 0
9748 1687 13 0.527 -49.19964016659533 -68.1771321199838 -94.15411300944398 0 0 0
1819 304 8 0.418 20.97213535635323 -69.41605708684078 -92.99289496690491 0 0 0
1820 304 11 -0.6830000000000001 20.034393516707002 -69.42601538059891 -92.91143939253884 0 0 0
1821 304 10 0.145 19.551979875587552 -70.71914943858702 -93.19397667661839 0 0 0
1822 304 9 0.04 19.773955363142726 -71.02079798691466 -94.2122078468942 0 0 0
1824 304 9 0.04 18.47815623807407 -70.71809123489426 -93.06915288166564 0 0 0
1912 319 9 0.04 -22.96217544709425 -62.68117063082202 -0.29563852932126566 0 0 0
12024 2256 13 0.527 -88.93261535283175 -0.11942726567695333 -20.126847833749654 0 0 0
9605 1652 12 0 81.5838979465089 -70.26784922791889 -96.67302196596245 0 0 0
9606 1652 14 -1.054 81.50975317532367 -70.20322180428487 -96.63626806793356 0 0 0
9607 1652 13 0.527 81.62974181526674 -69.68023218613398 -95.8651829133005 0 0 0
9608 1652 13 0.527 80.67362589402312 -70.10199754172825 -97.05236006285692 0 0 0
9268 1567 13 0.527 98.22874840160485 -70.67690564288922 -96.73649437502006 0 0 0
979 164 8 0.418 -88.226812733618 -62.58433480786121 -96.53208849544718 0 0 0
980 164 11 -0.6830000000000001 -88.50088092440834 -61.68564566521648 -96.47312198421986 0 0 0
981 164 10 0.145 -87.36496485366047 -60.85314128644494 -96.44142298075965 0 0 0
982 164 9 0.04 -86.75721730399562 -61.032064720769 -95.5609602831133 0 0 0
983 164 9 0.04 -86.7380045513673 -60.98912132990824 -97.31622299607471 0 0 0
984 164 9 0.04 -87.69517790029631 -59.82401731709312 -96.41761461219376 0 0 0
13 3 8 0.418 20.596211428184724 -66.19783066658786 -0.15621116794882478 0 0 0
9365 1592 12 0 15.54422013861647 -59.108141890160404 -98.0464627194294 0 0 0
9366 1592 14 -1.054 15.511599096651311 -59.07267586586534 -97.95317269455101 0 0 0
9367 1592 13 0.527 15.732986690342385 -59.495771347266256 -97.14418228850018 0 0 0
9368 1592 13 0.527 14.975136167246648 -58.307026350686876 -97.86110709084349 0 0 0
9713 1679 12 0 36.70760555923707 -61.22187850674637 -94.60285801158894 0 0 0
9714 1679 14 -1.054 36.72526356099595 -61.317080387407145 -94.64347570345511 0 0 0
9715 1679 13 0.527 36.052336884873355 -61.967914158692125 -94.72140400910882 0 0 0
9716 1679 13 0.527 37.56874275466698 -61.58576857810599 -94.95785960273678 0 0 0
783 131 10 0.145 -8.245505040429363 -0.15113921595003416 -4.053889630173113 0 0 0
9565 1642 12 0 55.552856584802576 -61.10028428504605 -96.0676205925667 0 0 0
9566 1642 14 -1.054 55.55429401071495 -61.10482351246619 -96.17251258092222 0 0 0
9567 1642 13 0.527 55.616835916072226 -61.91481301735013 -96.644204474171 0 0 0
9568 1642 13 0.527 55.50563570393749 -60.338676831634416 -96.71393604064345 0 0 0
9025 1507 12 0 81.93044440131179 -60.15102351371524 -97.13637559675354 0 0 0
9026 1507 14 -1.054 81.98949649181334 -60.12214899169563 -97.05449695127417 0 0 0
9027 1507 13 0.527 81.62936656129025 -59.716386563510405 -96.28758690757991 0 0 0
9028 1507 13 0.527 82.9199900930996 -60.24902242152784 -97.03056954288036 0 0 0
1491 249 10 0.145 -99.80208612472398 -51.3065410125039 -96.85692447711683 1 0 0
1492 249 9 0.04 -98.96498180865073 -51.42914982342805 -96.17756614032706 1 0 0
1493 249 9 0.04 -99.85005683698503 -52.183596958482724 -97.4929612555755 1 0 0
1494 249 9 0.04 -99.60669189918912 -50.446710818034504 -97.48229745866473 1 0 0
10069 1768 12 0 41.95996381988882 -55.07197686416096 -92.93394846286397 0 0 0
10070 1768 14 -1.054 41.87210794630861 -55.12643993539642 -92.91550613792757 0 0 0
10071 1768 13 0.527 41.124947265601676 -55.09122697350689 -93.48383587903304 0 0 0
10072 1768 13 0.527 41.77069920080715 -55.68769282181788 -92.16904837360067 0 0 0
1489 249 8 0.418 98.80039845040663 -51.83798439875188 -95.6262780945457 0 0 0
1490 249 11 -0.6830000000000001 98.98747309810742 -51.09122970589448 -96.16801145489 0 0 0
1687 282 8 0.418 -92.25180256118989 -48.569746840136894 -94.05838165794111 0 0 0
1688 282 11 -0.6830000000000001 -92.84322290950051 -47.83860812780404 -94.0135995423125 0 0 0
10017 1755 12 0 -82.80679951836635 -49.67010344219637 -96.54973015246019 0 0 0
10018 1755 14 -1.054 -82.75373830648601 -49.58201104165238 -96.52853494639399 0 0 0
10019 1755 13 0.527 -82.72770005992133 -48.85136405474853 -97.11842029148119 0 0 0
10020 1755 13 0.527 -82.26727670205197 -49.46180407040075 -95.73393245358487 0 0 0
9319 1580 13 0.527 -35.968541824408575 -42.62933359754256 -97.28507226630872 0 0 0
10097 1775 12 0 -25.90833499121762 -47.670676476743125 -96.3885122679437 0 0 0
10098 1775 14 -1.054 -25.90931715368957 -47.59363070153606 -96.45984237294587 0 0 0
10099 1775 13 0.527 -25.18732487159077 -47.428332523198314 -97.03767572862247 0 0 0
10100 1775 13 0.527 -26.640795802621973 -47.01477044635083 -96.57096177371552 0 0 0
10125 1782 12 0 15.272697873380753 -45.56523093313575 -97.56505831940106 0 0 0
10126 1782 14 -1.054 15.18938834864834 -45.59253528315521 -97.62284236182519 0 0 0
10127 1782 13 0.527 14.368418757635126 -45.84409243944319 -97.24177063910571 0 0 0
10128 1782 13 0.527 15.205700120906384 -45.604701378197106 -98.56203011851802 0 0 0
9041 1511 12 0 37.15758964815375 -47.84825105141189 -97.28955661831974 0 0 0
9042 1511 14 -1.054 37.113065489691515 -47.832615592992276 -97.38335497519894 0 0 0
9043 1511 13 0.527 36.201642168713754 -47.628671967586556 -97.48436120143634 0 0 0
9044 1511 13 0.527 37.5944453991242 -47.88554174581524 -98.18831456129406 0 0 0
10289 1823 12 0 -86.07518144058163 -40.96287462211019 -93.70824833737198 0 0 0
10290 1823 14 -1.054 -86.12656383408428 -40.89094579557067 -93.65158182565135 0 0 0
10292 1823 13 0.527 -86.90896913079061 -40.469622014055425 -93.95623893277353 0 0 0
10291 1823 13 0.527 -85.84044326365705 -40.61753397686719 -92.79960252621025 0 0 0
9317 1580 12 0 -36.93371049354595 -42.62336497833119 -97.54663143514969 0 0 0
9318 1580 14 -1.054 -36.86221089882062 -42.54824184363459 -97.56304248592251 0 0 0
9320 1580 13 0.527 -37.06529017430681 -41.74156177437881 -97.99952135578677 0 0 0
9385 1597 12 0 -25.017744525594278 -41.574102816689575 -99.19718683559456 0 0 0
9386 1597 14 -1.054 -25.035993548639624 -41.473712544093274 -99.22196114337362 0 0 0
9387 1597 13 0.527 -24.772402909444455 -40.75958552742921 -98.67147925529403 0 0 0
911 152 9 0.04 34.120681116303324 -36.29357190557333 -93.06352921859283 0 0 0
821 137 9 0.04 49.97682811327421 -36.42405122529944 -92.98577056010146 0 0 0
1099 184 8 0.418 44.81801210371481 -38.51590613456925 -98.69399618880189 0 0 0
1100 184 11 -0.6830000000000001 44.18680998785779 -37.93157405108883 -99.07663531489474 0 0 0
1101 184 10 0.145 44.17707431212343 -36.71932450151918 -98.35861963996551 0 0 0
1102 184 9 0.04 43.88098380226469 -36.86327409197291 -97.32487468133617 0 0 0
1103 184 9 0.04 45.14853226700439 -36.23715395020696 -98.36628098844564 0 0 0
1104 184 9 0.04 43.46502766528578 -36.05211191782296 -98.82379371439404 0 0 0
10353 1839 12 0 82.78161426980424 -37.58880889185442 -98.3830615367086 0 0 0
10354 1839 14 -1.054 82.73975924426638 -37.493070112810706 -98.39341735750872 0 0 0
10355 1839 13 0.527 81.85423225060046 -37.35450025466786 -98.67471447446475 0 0 0
10356 1839 13 0.527 83.22102305600428 -36.70693229361376 -98.21214352364338 0 0 0
553 93 8 0.418 93.81537918963757 -40.522305998028166 -94.62506311550827 0 0 0
554 93 11 -0.6830000000000001 94.53486050811665 -40.12113468409981 -95.08061905584869 0 0 0
555 93 10 0.145 95.00920059657886 -41.000825617997684 -96.07387392304534 0 0 0
556 93 9 0.04 95.35759784111198 -41.937999553623335 -95.65239965867455 0 0 0
557 93 9 0.04 94.24647607772681 -41.226267534954786 -96.81104373769264 0 0 0
558 93 9 0.04 95.8389417969626 -40.52832761740072 -96.58069565308575 0 0 0
487 82 8 0.418 -89.03057806389535 -31.89576855788312 -96.9710292414766 0 0 0
488 82 11 -0.6830000000000001 -89.0800364229283 -31.34756681682002 -96.20731952658589 0 0 0
489 82 10 0.145 -87.93631961543362 -30.52754444036628 -96.1448242260259 0 0 0
490 82 9 0.04 -87.0238421646765 -31.108921137908904 -96.06100493215835 0 0 0
491 82 9 0.04 -87.84958324131858 -29.8892663133314 -97.01714888292456 0 0 0
492 82 9 0.04 -88.01651661426098 -29.89538137244889 -95.27149024809471 0 0 0
9489 1623 12 0 -73.60334363735798 -30.104971236458983 -94.59541592340452 0 0 0
9490 1623 14 -1.054 -73.6275646405034 -30.127625498230575 -94.4957909896268 0 0 0
9491 1623 13 0.527 -74.01420090963298 -30.945061086046397 -94.24123414868504 0 0 0
9492 1623 13 0.527 -73.47487064414103 -29.5289995713891 -93.78810513185334 0 0 0
4007 668 9 0.04 -65.15448175691523 -28.340934734862028 -99.51246549811994 0 0 1
10453 1864 12 0 -36.49624232173405 -28.647045867115274 -99.78695115044314 0 0 0
10454 1864 14 -1.054 -36.471845484137845 -28.72979311027989 -99.72709559043439 0 0 0
10455 1864 13 0.527 -37.12182468674955 -29.30550958246087 -99.36853553976475 0 0 0
9981 1746 12 0 -11.663392662090665 -32.36245259998225 -95.30220923021189 0 0 0
9982 1746 14 -1.054 -11.596348952457799 -32.425896499067804 -95.2521591286387 0 0 0
9983 1746 13 0.527 -11.013701379698194 -33.00693953243047 -95.70536827400379 0 0 0
9984 1746 13 0.527 -11.531444575692884 -32.45763609308753 -94.31553340288016 0 0 0
822 137 9 0.04 49.74081343876943 -34.6872640724521 -93.06303256418842 0 0 0
9769 1693 12 0 55.52825649358187 -34.68846804047789 -94.94018052014013 0 0 0
9770 1693 14 -1.054 55.54990081941334 -34.6012411708163 -94.99447597453866 0 0 0
9771 1693 13 0.527 54.897573305390125 -34.131641575940854 -95.48071949896402 0 0 0
9772 1693 13 0.527 56.41128337327638 -34.22834667027863 -95.03265342172438 0 0 0
9053 1514 12 0 84.04770139242882 -35.413223482949455 -97.91462374444737 0 0 0
9054 1514 14 -1.054 84.10797513476234 -35.3879197082437 -97.8324544377036 0 0 0
9055 1514 13 0.527 83.77748749603012 -35.349321412676865 -96.95394671301983 0 0 0
9056 1514 13 0.527 85.02062595579676 -35.18211761590285 -97.91731731390894 0 0 0
782 131 11 -0.6830000000000001 -9.63307191996269 -0.16752214546415348 -3.8131455693089698 0 0 0
4008 668 9 0.04 -63.502100158097925 -27.750246204604576 -99.51497512783162 0 0 1
10456 1864 13 0.527 -35.58622568475475 -28.953303574114916 -99.507531536907 0 0 0
2543 424 9 0.04 76.60573637228349 -22.43833910767897 -99.90890170945389 0 0 1
1447 242 8 0.418 92.41283857245378 -23.945488343993226 -96.41804554542531 0 0 0
1449 242 10 0.145 92.51141695189156 -25.823485427916594 -96.87667598886568 0 0 0
1450 242 9 0.04 92.56413444736872 -26.21933079718143 -95.86816291432758 0 0 0
1451 242 9 0.04 91.48693789489785 -25.916826402814806 -97.22160929132012 0 0 0
1448 242 11 -0.6830000000000001 92.97114548729859 -24.493637171700545 -96.94232688006532 0 0 0
1452 242 9 0.04 93.13902299795552 -26.434596799305883 -97.51042325601615 0 0 0
10201 1801 12 0 -61.77404265287427 -20.435884096116983 -95.5970954745282 0 0 0
10202 1801 14 -1.054 -61.744603779494064 -20.536048986883138 -95.60829133947506 0 0 0
10203 1801 13 0.527 -62.07786591672186 -21.089305816641033 -96.29044305157515 0 0 0
10204 1801 13 0.527 -61.12700176976296 -20.950250113206746 -95.03427660566344 0 0 0
1327 222 8 0.418 -28.481906054928395 -18.032945259418597 -98.90022464255165 0 0 0
1328 222 11 -0.6830000000000001 -28.245369212982098 -17.384220144029715 -99.54122076352552 0 0 0
1329 222 10 0.145 -26.845717400736095 -17.367614357177665 -99.69610654839913 0 0 0
1330 222 9 0.04 -26.338108550071798 -17.13551214413084 -98.76604374154022 0 0 0
10359 1840 13 0.527 1.5016729685129235 -99.65891171505373 -22.565008364202615 0 0 0
1813 303 8 0.418 -20.339658915571366 -17.447269434194038 -98.95707025908895 0 0 0
1814 303 11 -0.6830000000000001 -19.755715925557496 -16.758885458373264 -99.22328339648365 0 0 0
1815 303 10 0.145 -18.67712128588154 -17.31196149508096 -99.9416487343459 0 0 0
1816 303 9 0.04 -18.102137143429818 -18.005859233481537 -99.3376375044621 0 0 0
259 44 8 0.418 33.186688774100475 -19.306557831820356 -94.6879593370754 0 0 0
260 44 11 -0.6830000000000001 33.4570069230389 -18.838243838270813 -93.91678698810826 0 0 0
262 44 9 0.04 31.770413189929833 -19.33606869847682 -92.8192076496398 0 0 0
1585 265 8 0.418 42.77118861384475 -17.37557402212234 -98.78051116432869 0 0 0
1586 265 11 -0.6830000000000001 43.40769538859786 -16.881813334938105 -98.29356757261523 0 0 0
1587 265 10 0.145 44.11459721036444 -17.748188952618836 -97.43682770134447 0 0 0
1588 265 9 0.04 43.46411163722766 -18.2135242299462 -96.70364887103398 0 0 0
1589 265 9 0.04 44.619923606588394 -18.535515552693532 -97.98529782410829 0 0 0
1590 265 9 0.04 44.86135694243109 -17.172169151595266 -96.90845813283107 0 0 0
5867 978 9 0.04 -40.515665784934086 -0.3107503665727555 -97.43586302229667 0 0 0
9736 1684 13 0.527 19.90278558593554 -12.418978047829302 -92.58370396575361 0 0 0
9541 1636 12 0 38.2095140358321 -11.884675272790806 -94.34689029588348 0 0 0
9542 1636 14 -1.054 38.1769268857511 -11.977364135083354 -94.38392882253494 0 0 0
9543 1636 13 0.527 37.46968946929548 -12.458386240828704 -93.9954436868425 0 0 0
9544 1636 13 0.527 38.56941631645303 -12.391591618082797 -95.1301562471313 0 0 0
4162 694 9 0.04 -96.40596099077695 -3.1697394748400605 -99.6151866571479 0 0 1
5868 978 9 0.04 -41.504553921677385 -0.07772683387607805 -96.0062450049052 0 0 0
785 131 9 0.04 -8.011684085036274 -0.3794432941447586 -5.08799877327985 0 0 0
10133 1784 12 0 62.52847827516321 -5.2497797277786 -99.35796620248377 0 0 0
10134 1784 14 -1.054 62.46432880429285 -5.329687846432142 -99.38086899620644 0 0 0
10135 1784 13 0.527 61.65325709788001 -5.4742487332445355 -98.92947940044124 0 0 0
784 131 9 0.04 -7.716136609959803 -0.8591300547658003 -3.4249940116351247 0 0 0
10437 1860 12 0 89.08005650075705 -4.972469053998282 -94.10449703393598 0 0 0
10438 1860 14 -1.054 89.10790712548854 -5.032340704729347 -94.02285924770433 0 0 0
10439 1860 13 0.527 88.97512943900489 -5.9621879475890225 -94.0073054371487 0 0 0
10440 1860 13 0.527 89.50968434137033 -4.6807729807754885 -93.24990198214778 0 0 0
469 79 8 0.418 -93.55546112748266 -94.04516353397942 -86.40586666785745 0 0 0
471 79 10 0.145 -94.43210996898152 -95.75707918086329 -86.16760261306553 0 0 0
472 79 9 0.04 -95.34643802108513 -95.52855999503066 -86.70531972607147 0 0 0
473 79 9 0.04 -93.78373453253495 -96.32019887842311 -86.82987406781022 0 0 0
1363 228 8 0.418 -61.211508630800544 -93.47620031704474 -89.34552487895996 0 0 0
1364 228 11 -0.6830000000000001 -60.4592828786381 -93.32079875901846 -88.80119102074815 0 0 0
1365 228 10 0.145 -60.35371529447218 -94.34916128283689 -87.8445554192397 0 0 0
1366 228 9 0.04 -61.218177857445745 -94.38453902203463 -87.18994290770428 0 0 0
1367 228 9 0.04 -60.24304037685096 -95.32329344249763 -88.30825695972523 0 0 0
1368 228 9 0.04 -59.47856951899845 -94.16281055070795 -87.2378797965509 0 0 0
9228 1557 13 0.527 64.72484906117667 -95.20633915365009 -92.61894411930723 0 0 0
10165 1792 12 0 38.018380139447736 -92.29566591009512 -90.48491950917345 0 0 0
10166 1792 14 -1.054 38.11034692801643 -92.3079300952317 -90.43575957057203 0 0 0
10167 1792 13 0.527 38.257807701155684 -92.01495439180071 -89.55547081812271 0 0 0
10168 1792 13 0.527 38.85116148384224 -92.71936131131288 -90.84122951818232 0 0 0
839 140 9 0.04 82.0049541891122 -89.24533527238856 -86.09105913301399 0 0 0
840 140 9 0.04 81.54569525600851 -87.58563506148958 -85.75598398764333 0 0 0
1749 292 10 0.145 -28.955725391834953 -81.70537099040568 -85.771179635427 0 0 0
1751 292 9 0.04 -28.929158525309603 -81.49791849213611 -86.83523073532317 0 0 0
589 99 8 0.418 93.28490756007672 -80.07504239371309 -92.04384567215597 0 0 0
590 99 11 -0.6830000000000001 93.60259987675549 -79.19179865625144 -91.97416099749921 0 0 0
591 99 10 0.145 95.00248691659654 -79.18308490774615 -92.13269034449216 0 0 0
592 99 9 0.04 95.50118241806769 -79.76154420238575 -91.36207593460651 0 0 0
9957 1740 12 0 -25.473464439871893 -77.54908791998953 -90.21305556581981 0 0 0
9958 1740 14 -1.054 -25.44388697248795 -77.45906386878202 -90.258286568764 0 0 0
9959 1740 13 0.527 -25.855806067447226 -77.12099529626218 -91.03192733138373 0 0 0
9960 1740 13 0.527 -24.74628937358915 -76.9276213390262 -89.92151638350128 0 0 0
1442 241 11 -0.6830000000000001 13.940448094534782 -73.6810219719798 -89.04267889746801 0 0 0
1443 241 10 0.145 13.27338389493862 -72.49043100069426 -88.69244383358155 0 0 0
1444 241 9 0.04 12.510892725045224 -72.660064586113 -87.93954569818952 0 0 0
1445 241 9 0.04 13.958742052245594 -71.73952205539791 -88.31461684762589 0 0 0
1446 241 9 0.04 12.792760679035796 -72.09555062680899 -89.5765645274677 0 0 0
1441 241 8 0.418 14.370812097678323 -74.03376375267989 -88.28325922717997 0 0 0
1823 304 9 0.04 19.97045529390528 -71.4621954687668 -92.52386091831131 0 0 0
205 35 8 0.418 50.45452996237947 -76.259118437763 -86.79149825399944 0 0 0
206 35 11 -0.6830000000000001 50.781237522846006 -75.38707860457016 -86.92840167909645 0 0 0
207 35 10 0.145 52.18534541198042 -75.42375803063486 -87.02970156661361 0 0 0
208 35 9 0.04 52.6481816878473 -75.78802667558033 -86.11859725185913 0 0 0
209 35 9 0.04 52.515846039937436 -76.05278252433561 -87.84909741991935 0 0 0
210 35 9 0.04 52.54103687312214 -74.41903804380163 -87.21039083500679 0 0 0
1201 201 8 0.418 62.16522133882433 -74.4222599610431 -90.32833028480476 0 0 0
1202 201 11 -0.6830000000000001 62.43890111604531 -74.51966374554114 -89.43308169631659 0 0 0
1203 201 10 0.145 61.832047360575395 -73.5204466964528 -88.64738338004297 0 0 0
1204 201 9 0.04 62.12860095167974 -72.5243960218351 -88.95857658164948 0 0 0
1205 201 9 0.04 60.74955285380243 -73.57628328182052 -88.68631822099273 0 0 0
1206 201 9 0.04 62.14078704264107 -73.65858387357163 -87.62063599177752 0 0 0
594 99 9 0.04 95.34743509024518 -78.1608646165168 -92.06428944162435 0 0 0
9533 1634 12 0 -85.94416157004986 -68.63975493060964 -90.55121642088415 0 0 0
9534 1634 14 -1.054 -85.94775549061875 -68.61363105021336 -90.44958165021984 0 0 0
9535 1634 13 0.527 -86.6873493289496 -68.80464026137392 -89.90276891659038 0 0 0
9536 1634 13 0.527 -85.2428740851703 -68.17030033458356 -90.01473936739 0 0 0
1279 214 8 0.418 -12.280368243658584 -69.8863591805717 -91.25532892328579 0 0 0
1280 214 11 -0.6830000000000001 -12.030799224609613 -69.01994436552219 -90.98505552560718 0 0 0
1281 214 10 0.145 -13.00440854955536 -68.50562282564029 -90.10659979345573 0 0 0
1282 214 9 0.04 -13.97069210229901 -68.40313661838968 -90.58881844115949 0 0 0
1283 214 9 0.04 -13.13035475828692 -69.13216355609127 -89.23016967935867 0 0 0
1284 214 9 0.04 -12.68597101649731 -67.52573123215919 -89.77943732008261 0 0 0
1417 237 8 0.418 92.00438031591614 -69.21037900743723 -90.6512127736041 0 0 0
1418 237 11 -0.6830000000000001 92.49650637585869 -68.65590697294114 -90.07087960377213 0 0 0
1419 237 10 0.145 93.52502931226799 -69.40807108002892 -89.46989069571644 0 0 0
1420 237 9 0.04 93.13550837325124 -70.24059494639462 -88.89289812232079 0 0 0
1421 237 9 0.04 94.21736716344633 -69.80301275104486 -90.20506289571964 0 0 0
1422 237 9 0.04 94.07616197746208 -68.76102034337981 -88.80177572409156 0 0 0
10077 1770 12 0 -94.44303475021047 -62.576457902553855 -89.20736591122123 0 0 0
10078 1770 14 -1.054 -94.46276568437753 -62.63138899211329 -89.29464858783412 0 0 0
10079 1770 13 0.527 -94.05624866968628 -63.45865784951593 -89.47591602683715 0 0 0
10080 1770 13 0.527 -95.0598569521312 -62.33468048598747 -89.95641426424035 0 0 0
787 132 8 0.418 -70.20197062549452 -62.10133551492206 -88.03414320073529 0 0 0
788 132 11 -0.6830000000000001 -69.90474516319179 -61.215611531428685 -88.14779232874052 0 0 0
789 132 10 0.145 -68.49586231465653 -61.19076029523135 -88.12913863699218 0 0 0
790 132 9 0.04 -68.09821607081521 -61.504906181022236 -87.16988660096435 0 0 0
791 132 9 0.04 -68.06974712548933 -61.82969058863015 -88.89504363206412 0 0 0
792 132 9 0.04 -68.16843973266681 -60.17720611388298 -88.3135533482646 0 0 0
9717 1680 12 0 -39.42297409065953 -60.53899217635206 -88.15589500088393 0 0 0
9718 1680 14 -1.054 -39.360224167329264 -60.53109152399739 -88.23971043391637 0 0 0
9719 1680 13 0.527 -38.64723924400018 -59.921002308407445 -88.28365788242898 0 0 0
9720 1680 13 0.527 -39.46712933451811 -61.064871077386336 -89.00530719704742 0 0 0
1711 286 8 0.418 7.034500445197209 -57.910208485507454 -90.48180266831969 0 0 0
1712 286 11 -0.6830000000000001 7.520664481994354 -57.13190717325545 -90.27205215668074 0 0 0
1713 286 10 0.145 8.829432588132255 -57.48573045045885 -89.89070808869809 0 0 0
1714 286 9 0.04 8.83756249869108 -58.121143211648345 -89.01139213466406 0 0 0
1715 286 9 0.04 9.356257808616093 -58.003543211839585 -90.68483643721183 0 0 0
9709 1678 12 0 21.05556792321925 -62.33971120127389 -88.8149705455714 0 0 0
9710 1678 14 -1.054 21.151690661412694 -62.298689228371444 -88.80484054352868 0 0 0
9712 1678 13 0.527 21.29790199278023 -61.39097254017685 -88.61207023809433 0 0 0
9711 1678 13 0.527 21.933895535706394 -62.81018890125192 -88.89976867096642 0 0 0
9045 1512 12 0 -70.62022218053592 -53.15289087898326 -90.63786906569823 0 0 0
9046 1512 14 -1.054 -70.54498938448252 -53.17030271410832 -90.70901577606185 0 0 0
9047 1512 13 0.527 -69.98100655617755 -52.489887066078175 -91.02752110631133 0 0 0
9048 1512 13 0.527 -70.38232471641044 -54.01889324150862 -91.07769185702176 0 0 0
9661 1666 12 0 -64.7031802284461 -55.44710502121773 -88.11146688146628 0 0 0
9662 1666 14 -1.054 -64.69189776461407 -55.375430539578566 -88.03556909038093 0 0 0
9663 1666 13 0.527 -63.90648564488873 -55.29533044730546 -87.52645269159684 0 0 0
9664 1666 13 0.527 -65.36833647744002 -54.76325166085258 -87.81161503630584 0 0 0
1969 329 8 0.418 -10.759770852960978 -50.700067294006246 -90.40922120902815 0 0 0
1970 329 11 -0.6830000000000001 -11.189325364271216 -50.41858587443745 -91.19833685232473 0 0 0
1716 286 9 0.04 9.373665654271415 -56.58100133535529 -89.65844713682816 0 0 0
37 7 8 0.418 29.599047651878227 -51.96572486533361 -89.18437549607944 0 0 0
38 7 11 -0.6830000000000001 30.303683018028998 -51.474703065455316 -89.56954388745203 0 0 0
39 7 10 0.145 31.407918901635252 -52.32361239653962 -89.77877492093523 0 0 0
40 7 9 0.04 31.786178345501984 -52.73333503970466 -88.84820588773789 0 0 0
41 7 9 0.04 31.16379120227359 -53.151203381658185 -90.43597022730202 0 0 0
42 7 9 0.04 32.198690257456605 -51.74813298122028 -90.2394340117711 0 0 0
9097 1525 12 0 45.77642954925448 -55.0133489407704 -92.0169662306473 0 0 0
9098 1525 14 -1.054 45.67332732217108 -55.030525510082526 -92.00697142013836 0 0 0
9099 1525 13 0.527 45.032912653130246 -54.59610312887817 -92.5395443977579 0 0 0
9100 1525 13 0.527 45.3179133219188 -55.63085041972871 -91.37786203268061 0 0 0
1689 282 10 0.145 -92.89714329777856 -47.35908822049708 -92.69019691724273 0 0 0
1690 282 9 0.04 -93.3054944421999 -48.09744223550641 -92.00818440138615 0 0 0
1692 282 9 0.04 -93.5382052064499 -46.48892128628397 -92.66827523241398 0 0 0
1691 282 9 0.04 -91.91797130103178 -47.06891135999684 -92.32510996417118 0 0 0
1971 329 10 0.145 -11.086497506234505 -49.01811261927633 -91.31283414281643 0 0 0
1972 329 9 0.04 -11.595079131088161 -48.505005629173674 -90.50320808550576 0 0 0
1973 329 9 0.04 -10.053777998598772 -48.68734102241561 -91.32241331088267 0 0 0
1974 329 9 0.04 -11.544483327189509 -48.71859744103893 -92.24477408682527 0 0 0
10217 1805 12 0 -12.75577417787167 -44.83581833697092 -90.90993162970001 0 0 0
10218 1805 14 -1.054 -12.763982051186122 -44.82401556296327 -91.01394280862506 0 0 0
10219 1805 13 0.527 -13.107644309617665 -45.49468096535963 -91.57482773466852 0 0 0
10220 1805 13 0.527 -12.49959679570279 -44.03935125805538 -91.45766580260997 0 0 0