LAMMPS data file via write_data, version 22 Jul 2025, timestep = 100000, units = real

6992 atoms
14 atom types
5594 bonds
12 bond types
6994 angles
16 angle types
2100 dihedrals
15 dihedral types
0 impropers
7 improper types

-20.233980076352477 20.233980076352477 xlo xhi
-20.233980076352477 20.233980076352477 ylo yhi
-20.233980076352477 20.233980076352477 zlo zhi

Masses

1 12.011
2 12.011
3 12.011
4 1.008
5 1.008
6 14.007
7 65.38
8 1.008
9 1.008
10 12.011
11 15.9994
12 15.999
13 1.00784
14 0.0001

Pair Coeffs # lj/cut/coul/long

1 0.086 3.4
2 0.086 3.4
3 0.1094 3.4
4 0.015 2.511
5 0.0157 2.65
6 0.17 3.25
7 0.0125 1.96
8 0 1
9 0.03 2.5
10 0.066 3.5
11 0.17 3.12
12 0.1848 3.165
13 0 1
14 0 1

Bond Coeffs # harmonic

1 346.543 1.49
2 488 1.335
3 540.249 1.35
4 367 1.08
5 440.221 1.37
6 340 1.09
7 78.5 2.011
8 340 1.09
9 320 1.41
10 553 0.945
11 0 0.9572
12 0 0.105

Angle Coeffs # harmonic

1 48.088 109.32
2 71.254 105.27
3 48.68 128.33
4 49.451 125.67
5 76.75 108.65
6 32.477 126.4
7 66.015 123.92
8 49.954 125.68
9 35 109.5
10 75.484 112.16
11 35.24 109.48
12 55 108.6
13 35 109.5
14 33 107.8
15 0 104.52
16 0 52.26

Improper Coeffs # harmonic

1 0 0
2 2 180
3 2 180
4 2 180
5 0 0
6 0 0
7 2 180

Atoms # full

160 27 9 0.04 -14.973974759370455 -17.541857572425517 -14.755883027804625 0 0 0
64 11 9 0.04 -13.377466160637832 -16.426410481321874 -10.939019019735035 0 0 0
62 11 11 -0.6830000000000001 -12.51302717995252 -16.049726157339045 -12.82081244603347 0 0 0
63 11 10 0.145 -13.225220844134665 -16.896407124347913 -11.921800860689999 0 0 0
61 11 8 0.418 -13.056559698457338 -15.259128592873793 -12.964410099837869 0 0 0
65 11 9 0.04 -14.204787749280259 -17.199842352955447 -12.318856434539548 0 0 0
4223 706 13 0.527 -12.095057993876777 -16.567191432644442 -14.473300035323525 0 0 0
4215 704 13 0.527 -11.306564602169061 -12.758669521727516 -17.935651913992054 0 0 0
4269 718 12 0 -15.82145300114132 -11.729152868718275 -11.706857302452885 0 0 0
4270 718 14 -1.054 -15.761582678822862 -11.806070190680884 -11.667815524721446 0 0 0
4271 718 13 0.527 -15.307722424586975 -12.421804299402702 -12.213131334436836 0 0 0
4222 706 14 -1.054 -11.584625035963574 -16.503327767407793 -15.259344934221046 0 0 0
4221 706 12 0 -11.606758426154403 -16.434956163202912 -15.335898360649663 0 0 0
4304 726 13 0.527 -11.438129107418169 -14.986455222922837 -16.356688505409497 0 0 0
4224 706 13 0.527 -10.86041333510576 -17.099841725029954 -15.305986825765718 0 0 0
66 11 9 0.04 -12.61701807511239 -17.794735567238348 -11.781913012645786 0 0 0
4301 726 12 0 -11.291759630651617 -14.086509954177917 -16.767386684991287 0 0 0
4302 726 14 -1.054 -11.224311909068923 -14.166858673745633 -16.762928160798708 0 0 0
144 24 9 0.04 -17.221213201502874 -11.380421071852528 -13.97533330423143 0 0 0
140 24 11 -0.6830000000000001 -18.405551702799205 -11.718371652906514 -15.593454343806894 0 0 0
141 24 10 0.145 -17.186667588201455 -11.967778395950859 -14.897445653141153 0 0 0
4339 735 13 0.527 -13.54819693982121 -13.286304760466606 -13.567252096700328 0 0 0
4976 894 13 0.527 -0.9658229595864114 -0.16882908844763023 -11.935355165798972 0 0 0
143 24 9 0.04 -16.303517989089457 -11.655944506157034 -15.473712777923872 0 0 0
4386 747 14 -1.054 -12.422881319788615 -12.742053976080832 -14.698266995675509 0 0 0
4385 747 12 0 -12.525839708619495 -12.726844960240332 -14.684365688997332 0 0 0
142 24 9 0.04 -17.07052842479777 -13.027682735958681 -14.627167809950915 0 0 0
139 24 8 0.418 -18.372814020984418 -12.221610419236535 -16.42217105175977 0 0 0
4338 735 14 -1.054 -14.013594270181162 -13.617546576030147 -12.821483272023409 0 0 0
4337 735 12 0 -14.104924429633979 -13.668680645401384 -12.829795867569153 0 0 0
4340 735 13 0.527 -13.596865251508325 -13.454902142014284 -11.995425968669922 0 0 0
4388 747 13 0.527 -12.07477126847089 -13.21766012223425 -15.42977580714448 0 0 0
4201 701 12 0 -10.062126281764327 -18.68110491744262 -15.247468548985143 0 0 0
4216 704 13 0.527 -10.425058602800274 -11.664516878533828 -18.661742972232013 0 0 0
158 27 11 -0.6830000000000001 -13.697698715637635 -17.8298641727651 -16.404659540517883 0 0 0
157 27 8 0.418 -12.990779088209571 -17.29515370614901 -16.010398521602248 0 0 0
4214 704 14 -1.054 -11.28618078653299 -11.96094131247032 -18.431334432908802 0 0 0
4213 704 12 0 -11.3732258785434 -11.90903927623193 -18.458799336186573 0 0 0
4387 747 13 0.527 -11.776551985630354 -12.413346441471942 -14.101026086291384 0 0 0
199 34 8 0.418 -8.813854408751322 -7.646428457192986 -13.11776523058844 0 0 0
4300 725 13 0.527 -11.921658499326956 -10.978578581997404 -17.19532173689379 0 0 0
99 17 10 0.145 -17.58612203961618 -16.431660728171842 -12.753719517573167 0 0 0
101 17 9 0.04 -17.02575751411872 -16.433215631659554 -13.69990478969487 0 0 0
4202 701 14 -1.054 -10.033986151650938 -18.78042785700607 -15.228283214103396 0 0 0
4203 701 13 0.527 -10.317621729536112 -19.499868615828262 -15.761615014062109 0 0 0
74 13 11 -0.6830000000000001 -18.227211723174836 -12.809302036940974 -18.257054375653837 0 0 0
73 13 8 0.418 -17.627625820741077 -13.256144458727517 -18.875051939955522 0 0 0
4299 725 13 0.527 -12.100494511259416 -11.24040788560136 -15.645839838000693 0 0 0
289 49 8 0.418 -14.666452047655053 -10.427570842550436 -12.31197181458763 0 0 0
1043 174 9 0.04 -14.182461056871901 -13.392829889408187 -18.03307721904981 0 1 0
1044 174 9 0.04 -15.757417106523071 -14.218562067950028 -18.063052607427462 0 1 0
1041 174 10 0.145 -14.925562397210797 -13.874980075461139 -18.684697495297232 0 1 0
4399 750 13 0.527 -13.610922012985311 -18.27308394626229 -18.10385477986791 0 0 0
100 17 9 0.04 -16.92192562664166 -16.069005934835594 -11.955433695561403 0 0 0
162 27 9 0.04 -15.723708772922276 -17.97558484107541 -16.308572526759264 0 0 0
159 27 10 0.145 -14.929970759787913 -17.383802337600454 -15.843549253504513 0 0 0
1040 174 11 -0.6830000000000001 -15.47101770469465 -12.974583135071263 -19.645985258171308 0 1 0
161 27 9 0.04 -15.124201892140592 -16.321247201844816 -16.049773013157203 0 0 0
97 17 8 0.418 -17.41167443225087 -18.33688046154916 -12.385117568208326 0 0 0
102 17 9 0.04 -18.421416628443257 -15.731929891038433 -12.84928580358867 0 0 0
264 44 9 0.04 -11.08483228603452 -13.36039351485268 -11.25685435657054 0 0 0
75 13 10 0.145 -19.36280293841131 -12.379391509316665 -19.00399469180529 0 0 0
953 159 9 0.04 -11.854334930326184 -15.824964330199744 -18.955397808363905 0 0 1
98 17 11 -0.6830000000000001 -18.146636645669663 -17.707237405078093 -12.451994769648369 0 0 0
1042 174 9 0.04 -14.459849091168202 -14.753923782128663 -19.154276780240323 0 1 0
337 57 8 0.418 -17.298599255441808 -10.443251234547356 -10.51654308641559 0 0 0
5717 1080 12 0 -1.1481050531510029 -16.782172307609006 -10.372412161613656 0 0 0
4297 725 12 0 -12.218715005287773 -10.53829903333838 -16.348026123499913 0 0 0
4298 725 14 -1.054 -12.183095368258012 -10.636285341727513 -16.360472614852377 0 0 0
133 23 8 0.418 -14.245436102272045 -20.047438377231924 -15.637966331331636 0 0 0
880 147 9 0.04 -6.184317701082147 -9.222079020068332 -19.761373716279007 0 0 1
2344 391 9 0.04 -18.38086501519373 -15.276867445285518 -19.056247030084517 1 0 0
4204 701 13 0.527 -9.478554812245683 -19.02031293947485 -14.509646915437969 0 0 0
1135 190 8 0.418 -14.569871813564575 -0.1891152656974988 -12.123983380289399 0 0 0
882 147 9 0.04 -5.552786138114843 -10.874898991288898 -19.935784560326937 0 0 1
3088 515 9 0.04 -0.11754488958465004 -9.18852312577167 -16.925997015653646 0 0 1
344 58 11 -0.6830000000000001 -14.133453906761547 -20.192230221433398 -12.64087575853826 0 0 0
76 13 9 0.04 -19.097471869260165 -11.648389487137113 -19.781922127415807 0 0 0
184 31 9 0.04 -11.235451032185647 -6.460002487072556 -18.557458942205535 0 0 0
260 44 11 -0.6830000000000001 -12.878461984671418 -13.263478129179433 -10.303605232893114 0 0 0
4465 767 12 0 -15.438268380794803 -6.237511292116041 -10.433567668491783 0 0 0
945 158 10 0.145 -19.752062716234388 -19.25345514822254 -19.645731843964978 0 0 1
221 37 9 0.04 -4.061123027222049 -7.04493472962713 -17.173678243964176 0 0 0
5064 916 13 0.527 -19.605956751449774 -0.1226002510075368 -18.078423460929503 0 0 0
5152 938 13 0.527 -4.552243604309041 -0.30184156607414536 -14.990950051392524 0 0 0
476 80 11 -0.6830000000000001 -8.623913774367821 -18.71929888377137 -13.005547973691058 0 0 0
475 80 8 0.418 -8.918550269825579 -17.853285062244467 -12.682590096782608 0 0 0
4306 727 14 -1.054 -9.793984381608707 -16.276999912217697 -12.171929198376013 0 0 0
984 164 9 0.04 -9.04551792724973 -14.367433608574212 -14.704739514713697 0 0 1
145 25 8 0.418 -3.3302620955410376 -19.990201213710606 -11.02020880860159 0 0 0
951 159 10 0.145 -11.110997014498402 -16.177952978961265 -19.684866892753085 0 0 1
4305 727 12 0 -9.744790209661486 -16.36007678756305 -12.130659881079406 0 0 0
4307 727 13 0.527 -9.336260072099256 -15.511236826319152 -12.4661779164758 0 0 0
5801 1101 12 0 -1.2498180807299484 -9.929660245638084 -12.650303823734333 0 0 0
78 13 9 0.04 -20.043830613400587 -11.896363528211308 -18.297341675856117 0 0 0
946 158 9 0.04 -19.02968391347119 -19.538695918554016 -18.866795263733778 0 0 1
5027 907 13 0.527 -17.345445027757776 -6.854564639467284 -10.182522136968535 0 0 0
112 19 9 0.04 -2.2745082473958718 -17.675080716479652 -19.083722090898846 0 0 0
5899 1125 13 0.527 -2.6959959637102173 -7.367213686751967 -12.367564897421115 0 0 0
1349 225 9 0.04 -4.020024255135198 -0.14101714562072587 -12.491666162889004 0 0 0
340 57 9 0.04 -19.224265519868055 -11.023521026913109 -11.750574446651036 0 0 0
53 9 9 0.04 -19.777406444660215 -13.011035239559341 -13.367857789914144 0 0 0
4285 722 12 0 -0.6668450577881124 -20.175586410001255 -12.192746394362766 0 0 0
7 2 8 0.418 -19.810046570247323 -6.229036496715095 -13.529899973186389 0 0 0
5104 926 13 0.527 -8.249555676063121 -1.0731303125577192 -13.202209229400502 0 0 0
238 40 9 0.04 -17.10652284729077 -19.782004576834723 -16.87057831801431 0 0 0
2174 363 11 -0.6830000000000001 -19.89237449596418 -17.728985664942368 -15.1127473578289 1 0 0
4416 754 13 0.527 -12.109782022571986 -4.964182043123616 -10.203841025958912 0 0 0
4303 726 13 0.527 -10.359040549829267 -14.123322552650258 -17.126104476633547 0 0 0
4280 720 13 0.527 -1.3516592626444144 -13.929770972468786 -15.703591959438658 0 0 0
1122 187 9 0.04 -9.046465880184178 -1.1964479340991545 -16.999486397693 0 0 0
6440 1260 13 0.527 -2.3098713426214488 -18.517559255660633 -15.979002384603671 0 1 0
4278 720 14 -1.054 -1.3935083673281952 -13.218183083147022 -16.315456555204722 0 0 0
4397 750 12 0 -13.56782797182202 -18.789014679154675 -18.95939956984136 0 0 0
5604 1051 13 0.527 -0.4591583212066688 -13.918068345289601 -12.080341999879586 0 0 0
4925 882 12 0 -3.714431898950508 -14.73660416815493 -19.68370095863249 0 0 1
2343 391 10 0.145 -18.170930565641555 -15.624632610308279 -20.078461559746007 1 0 0
4928 882 13 0.527 -2.9280486988652896 -14.158182984594307 -19.46683947701467 0 0 1
5744 1086 13 0.527 -1.8415502323685011 -12.931343024360316 -13.218711147749541 0 0 0
952 159 9 0.04 -10.549210515548296 -17.010162611281345 -19.23569133104649 0 0 1
980 164 11 -0.6830000000000001 -8.78089808668793 -13.918555753615841 -12.739117732449103 0 0 1
478 80 9 0.04 -9.040372735538385 -19.65928452231812 -11.168898506996852 0 0 0
5743 1086 13 0.527 -1.7997114703463346 -12.328241104680755 -14.680199652958484 0 0 0
4945 887 12 0 -1.6282422069540594 -13.063931331019491 -19.03915569677318 0 0 1
982 164 9 0.04 -7.5382334262879365 -13.481844027186128 -14.380872811719986 0 0 1
749 125 9 0.04 -5.257369325058924 -13.25132169047582 -17.626370001916197 0 0 1
6439 1260 13 0.527 -1.3173846961131517 -17.423451511603098 -16.54409490736637 0 1 0
6437 1260 12 0 -2.2694429219266645 -17.56212302250929 -16.27141588011808 0 1 0
4226 707 14 -1.054 -8.78930865352257 -14.0408284017608 -17.96184304010174 0 0 0
4225 707 12 0 -8.880273847539328 -14.092494943710813 -17.970837051513268 0 0 0
4277 720 12 0 -1.4843346136398274 -13.178149194080529 -16.34970375987896 0 0 0
2460 410 9 0.04 -6.433712506959468 -12.20937484612985 -12.849511044051383 0 0 0
119 20 9 0.04 -4.9177612782402225 -15.551492287612376 -13.67464310217471 0 0 0
4804 851 13 0.527 -2.574659439370805 -18.211904677353385 -13.919117936684609 0 0 1
4802 851 14 -1.054 -2.6498595669067377 -18.540383095851023 -13.042229218121097 0 0 1
120 20 9 0.04 -4.831985648983064 -17.317763123893876 -13.864770920359373 0 0 0
246 41 9 0.04 -6.841560625685428 -17.922190939723887 -16.306670677078262 0 0 0
243 41 10 0.145 -7.067095189537325 -18.603211001592694 -17.13239402386124 0 0 0
242 41 11 -0.6830000000000001 -6.196164377615325 -18.255313409746954 -18.20605928464311 0 0 0
241 41 8 0.418 -6.37780863110398 -18.8687254061483 -18.935321570541465 0 0 0
983 164 9 0.04 -7.665196790938838 -15.214205320515969 -13.969273715761293 0 0 1
4330 733 14 -1.054 -4.328563029189423 -16.57984816720153 -17.498891635481396 0 0 0
4332 733 13 0.527 -4.92876571108242 -17.256561908713095 -17.752470435939504 0 0 0
4329 733 12 0 -4.3378791073041825 -16.480574676955918 -17.531800223173043 0 0 0
981 164 10 0.145 -8.214422288830807 -14.262052555273868 -14.00142729173702 0 0 1
4927 882 13 0.527 -3.964351657811232 -15.157254976767193 -18.811581977918124 0 0 1
979 164 8 0.418 -8.049936358355097 -13.842646710148074 -12.105852256822468 0 0 1
244 41 9 0.04 -8.127171144921585 -18.482023093018594 -17.399766586766788 0 0 0
117 20 10 0.145 -5.123594197519706 -16.513465005208797 -13.18319759320941 0 0 0
4803 851 13 0.527 -3.072457699004403 -17.95644655372868 -12.439804211281366 0 0 1
4801 851 12 0 -2.61389202644612 -18.63484915950724 -13.013812864179023 0 0 1
116 20 11 -0.6830000000000001 -4.364732717880427 -16.686923206167208 -11.988897876631889 0 0 0
115 20 8 0.418 -4.604613640203123 -15.964812143658907 -11.38714614186325 0 0 0
118 20 9 0.04 -6.206184814512081 -16.588970983742886 -13.003664780139212 0 0 0
4331 733 13 0.527 -3.638379578359711 -16.86198265316239 -16.92746019482006 0 0 0
745 125 8 0.418 -5.684459282815295 -15.514760475428517 -17.183678094604563 0 0 1
746 125 11 -0.6830000000000001 -6.413396773834819 -14.899543877625948 -17.00689838490195 0 0 1
2457 410 10 0.145 -5.924560472804371 -11.2418709617809 -12.883769611847706 0 0 0
4228 707 13 0.527 -8.065750875050675 -14.371224192358214 -17.462053366226204 0 0 0
4227 707 13 0.527 -8.63426515758718 -13.211403393536077 -18.37476267567729 0 0 0
2458 410 9 0.04 -4.840010536934152 -11.423542296021802 -12.90989604830612 0 0 0
748 125 9 0.04 -5.188023692319932 -13.612047472087294 -15.879464951237782 0 0 1
4948 887 13 0.527 -1.7453087520019253 -13.272222488669204 -18.068120824663623 0 0 1
6438 1260 14 -1.054 -2.1912495166461206 -17.632179546096793 -16.269723191631524 0 1 0
747 125 10 0.145 -5.837661228963048 -13.617619491882753 -16.767088549021587 0 0 1
750 125 9 0.04 -6.665805015856009 -12.925201582605863 -16.590429225108995 0 0 1
2459 410 9 0.04 -6.16399966950099 -10.691777410251573 -11.962171356645364 0 0 0
4946 887 14 -1.054 -1.6667485419384853 -13.001313312145548 -18.9641807929772 0 0 1
4873 869 12 0 -8.783143157309386 -11.357873048721528 -19.011142235256944 0 0 1
4947 887 13 0.527 -1.9601076726268332 -12.125598398898365 -19.13608415682536 0 0 1
149 25 9 0.04 -5.168800225004235 -19.686845041422536 -12.44474019445816 0 0 0
5741 1086 12 0 -2.095285358159778 -12.121428144449087 -13.747535200167214 0 0 0
5742 1086 14 -1.054 -2.0481693664667944 -12.208636144470493 -13.782173883454842 0 0 0
5718 1080 14 -1.054 -1.128311054313329 -16.84530125013652 -10.2908773558788 0 0 0
479 80 9 0.04 -10.393347895823148 -19.643396991507274 -12.333293184244724 0 0 0
477 80 10 0.145 -9.30003979493143 -19.711146786569962 -12.236521545141054 0 0 0
949 159 8 0.418 -9.795208015468932 -14.777818981936601 -19.36162441774184 0 0 1
2456 410 11 -0.6830000000000001 -6.388056208504805 -10.570937751399835 -14.053098751128886 0 0 0
4874 869 14 -1.054 -8.72897386233653 -11.268314379545268 -19.019504207414737 0 0 1
5730 1083 14 -1.054 -1.9890588827778792 -14.298485071188168 -11.519036612194041 0 0 0
5729 1083 12 0 -1.9307841033728117 -14.237971564807115 -11.582021975189003 0 0 0
5731 1083 13 0.527 -1.7686748912999484 -15.191402291986597 -11.327681736515805 0 0 0
5803 1101 13 0.527 -1.655556905961184 -10.718819137912513 -13.111392485079854 0 0 0
5683 1071 13 0.527 -0.7146517972572717 -19.85629776480725 -10.40625339323939 0 0 0
5732 1083 13 0.527 -2.7722987666058074 -13.990046830508778 -11.102037701629778 0 0 0
4926 882 14 -1.054 -3.668417713101899 -14.723071698285764 -19.59029562002287 0 0 1
147 25 10 0.145 -5.239908714034012 -19.792713746809774 -11.352488946645238 0 0 0
1193 199 9 0.04 -6.050842087624012 -4.580543941790397 -14.69086140007917 0 0 0
339 57 10 0.145 -19.219190438680943 -10.403537733298103 -10.841987308863748 0 0 0
240 40 9 0.04 -18.771036049257404 -19.93068394621809 -16.263655456021734 0 0 0
4251 713 13 0.527 -18.269995609346196 -6.715105843906208 -20.022939498985327 0 0 0
4398 750 14 -1.054 -13.604407936230505 -18.691678435342475 -18.94482040096061 0 0 0
1120 187 9 0.04 -9.736112536538796 -1.5925906097133478 -15.409353200521615 0 0 0
5799 1100 13 0.527 -3.996451269642769 -9.065521667278325 -10.591738957260779 0 0 0
5061 916 12 0 -20.051970647699275 -0.919506052909135 -18.485868245440606 0 0 0
389 65 9 0.04 -9.916634303345933 -10.194614586556414 -11.090934685614648 0 0 0
5802 1101 14 -1.054 -1.2116696227753465 -9.98267831433146 -12.732515561756081 0 0 0
216 36 9 0.04 -2.945800261586662 -11.368114879925495 -16.605621756442755 0 0 0
4248 712 13 0.527 -2.9580351714528454 -10.302484541725605 -18.548784719375995 0 0 0
4246 712 14 -1.054 -2.6209415263932065 -10.573468481766348 -19.38270469997624 0 0 0
4245 712 12 0 -2.5309122669792075 -10.626529082667316 -19.392917212019793 0 0 0
4206 702 14 -1.054 -7.671164369426634 -13.90883628738477 -10.174938183190633 0 0 0
5102 926 14 -1.054 -8.103196756397274 -2.0003291717365457 -13.165218723648783 0 0 0
4503 776 13 0.527 -5.971964296367849 -7.703546217858662 -13.27008772119171 0 0 0
2345 391 9 0.04 -17.4681048370579 -16.46853315135705 -20.022378938556542 1 0 0
4372 743 13 0.527 -0.500417417887089 -15.044091535529255 -13.792465570382975 0 0 0
148 25 9 0.04 -5.360111063572591 -18.791974873168368 -10.912024725950989 0 0 0
123 21 10 0.145 -1.028522835963944 -6.218729478513522 -13.423872095982473 0 0 0
5149 938 12 0 -4.392288827550734 -1.138873091779164 -15.514200660131348 0 0 0
4288 722 13 0.527 -1.3724803999386097 -19.505611505156065 -12.42342126504302 0 0 0
6376 1244 13 0.527 -1.4698139022068837 -2.8104641505719066 -11.92403278882899 0 0 0
4264 716 13 0.527 -9.255547905499654 -16.62250518040725 -10.333241483830113 0 0 0
1121 187 9 0.04 -8.31118257949907 -0.5237191574195919 -15.526389939995646 0 0 0
934 156 9 0.04 -7.282734684342136 -15.562131153721332 -19.96786300910041 0 0 1
230 39 11 -0.6830000000000001 -8.910231597115489 -3.195334587923316 -10.503283934653975 0 0 0
4544 786 13 0.527 -19.300363163327578 -10.196433361422011 -15.60277917304844 0 0 0
1119 187 10 0.145 -8.798948323907377 -1.4108248051665875 -15.955814597715637 0 0 0
5151 938 13 0.527 -4.603082208838307 -1.8783479221534627 -14.874871612749896 0 0 0
71 12 9 0.04 -16.244282704358966 -11.015867703844304 -17.547845934121025 0 0 0
4467 767 13 0.527 -14.440732072871626 -6.215404124656368 -10.500134121749143 0 0 0
4250 713 14 -1.054 -18.594875450405432 -7.566552907546017 -19.794952784380236 0 0 0
77 13 9 0.04 -19.893731479420325 -13.217092769264992 -19.479019819313258 0 0 0
4973 894 12 0 -0.763588860459798 -0.7626261344593956 -12.714139437902407 0 0 0
4974 894 14 -1.054 -0.7361868395116957 -0.7767100567400931 -12.613761339185604 0 0 0
1789 299 8 0.418 -2.949910294828193 -4.516311802535798 -18.927374973464012 0 0 1
1790 299 11 -0.6830000000000001 -3.5678993730762762 -5.121569281435894 -19.366516496426765 0 0 1
5150 938 14 -1.054 -4.424089083330351 -1.1305053418734516 -15.414482483178926 0 0 0
154 26 9 0.04 -9.117305552487716 -9.881930005109938 -13.401999301817458 0 0 0
153 26 10 0.145 -9.586355262631647 -10.577981788047353 -14.112942276075312 0 0 0
217 37 8 0.418 -5.262758730748047 -7.821869172630896 -15.31518918095365 0 0 0
342 57 9 0.04 -19.971562436251855 -9.618137690350647 -10.95841908885354 0 0 0
4229 708 12 0 -19.98275638725019 -5.047038443377222 -16.85764900292919 0 0 0
1117 187 8 0.418 -7.706173662748075 -2.7363016992749998 -15.036512612319182 0 0 0
5221 956 12 0 -5.5296556660758736 -2.4293345984759576 -17.75120240861124 0 0 0
183 31 10 0.145 -11.438710716732134 -7.538673330567207 -18.628805559475268 0 0 0
191 32 9 0.04 -1.563086728661947 -4.0179594097918425 -15.32782559602321 0 0 0
338 57 11 -0.6830000000000001 -17.96757111953429 -9.751642233730406 -10.640017896923455 0 0 0
3087 515 10 0.145 -0.39726670630722083 -8.158275224682281 -17.19110189171797 0 0 1
810 135 9 0.04 -14.122135780566495 -0.8009279674463947 -18.80251426897779 0 0 1
4541 786 12 0 -19.887360565398765 -9.406599530829123 -15.780529208744941 0 0 0
105 18 10 0.145 -11.853484722062394 -2.729123766779743 -17.631901162475863 0 0 0
106 18 9 0.04 -11.335187510550549 -3.5926191247611605 -17.18954452462955 0 0 0
92 16 11 -0.6830000000000001 -17.94995968095302 -1.6800728187904497 -14.166593697872816 0 0 0
94 16 9 0.04 -19.641465141133413 -2.4810013710475687 -15.129721447903554 0 0 0
91 16 8 0.418 -17.33861315783693 -2.0844510177081332 -14.802066824528945 0 0 0
4414 754 14 -1.054 -12.420292578827063 -5.718642236508403 -10.669523285011087 0 0 0
4252 713 13 0.527 -18.769433492568755 -7.687390369727522 -18.879849100094358 0 0 0
185 31 9 0.04 -11.551253922848222 -7.940476017197835 -17.611374472809135 0 0 0
4400 750 13 0.527 -13.951207054642932 -18.17013588867181 -19.64497088394604 0 0 0
290 49 11 -0.6830000000000001 -14.083255209023662 -9.747668500371795 -12.684405226486245 0 0 0
4219 705 13 0.527 -14.796112767715167 -4.8862762819473105 -18.845372961781493 0 0 0
4391 748 13 0.527 -13.452370831155235 -9.624121568680899 -15.626227390088726 0 0 0
4415 754 13 0.527 -12.06953528337958 -5.816574367243037 -11.535471073739789 0 0 0
294 49 9 0.04 -12.388954841586916 -8.750670787341743 -12.164284274475701 0 0 0
291 49 10 0.145 -13.054464930624604 -9.501571557631795 -11.728718476749536 0 0 0
4543 786 13 0.527 -19.851073113944388 -8.872164341626078 -14.9360999609178 0 0 0
96 16 9 0.04 -19.80964227161915 -2.024675203838676 -13.419590459729601 0 0 0
95 16 9 0.04 -18.938929490111704 -3.5133936099890803 -13.854096469157149 0 0 0
4390 748 14 -1.054 -14.092826093929732 -9.091283212129566 -15.192191334539995 0 0 0
4392 748 13 0.527 -14.189822848052923 -9.264703191500109 -14.27403878959506 0 0 0
4389 748 12 0 -14.149092582631187 -9.018161389495711 -15.242313900563298 0 0 0
93 16 10 0.145 -19.134275429956414 -2.473508385087513 -14.153689645245153 0 0 0
2281 381 8 0.418 -18.329557339136354 -8.401197078724245 -12.509589522149177 1 0 0
4321 731 12 0 -18.82278860145028 -7.524899878541362 -17.348482443412433 0 0 0
2282 381 11 -0.6830000000000001 -18.717765763127137 -8.020491782773984 -13.312988607888283 1 0 0
2283 381 10 0.145 -17.707813848417192 -7.233853776597037 -13.940290834083157 1 0 0
2285 381 9 0.04 -16.823554676046584 -7.8275984051356 -14.213842329237696 1 0 0
1177 197 8 0.418 -3.719813587987016 -2.6126890292484006 -18.34768203548193 0 0 0
2284 381 9 0.04 -17.3823600148623 -6.393540125351727 -13.309506879373982 1 0 0
4322 731 14 -1.054 -18.788719403314623 -7.59805342408114 -17.281304777226453 0 0 0
4220 705 13 0.527 -13.980607339248529 -3.5322770962321783 -18.789981991297587 0 0 0
4324 731 13 0.527 -19.355572253298426 -8.248273755089656 -16.909312407745492 0 0 0
4378 745 14 -1.054 -13.45732885436433 -6.342947743511639 -15.884652514795796 0 0 0
4289 723 12 0 -18.97419532136209 -5.035084504227404 -11.603915442695055 0 0 0
4290 723 14 -1.054 -19.022075314167356 -5.042918985050678 -11.510796607220982 0 0 0
2286 381 9 0.04 -18.14553009609495 -6.825981100419563 -14.855996887426212 1 0 0
5212 953 13 0.527 -16.742148206491617 -0.874220984776688 -11.376033749056635 0 0 0
5209 953 12 0 -16.31071266934449 -1.6413021232225837 -11.850847827938852 0 0 0
5211 953 13 0.527 -16.830029473933916 -1.7344042673475428 -12.700342120096257 0 0 0
67 12 8 0.418 -15.359218181324579 -9.037859673076671 -16.650247967139688 0 0 0
4512 778 13 0.527 -17.443093540918035 -4.424284386749756 -12.063222350264322 0 0 0
4509 778 12 0 -16.45103405940695 -4.370258058486826 -12.176790154574102 0 0 0
4511 778 13 0.527 -16.224452680081733 -3.422069737112185 -11.954083417071198 0 0 0
5071 918 13 0.527 -15.613102796944704 -4.2210988344652876 -15.36603613106347 0 0 0
4231 708 13 0.527 -19.47283975788502 -5.897660667201148 -16.985810497190087 0 0 0
68 12 11 -0.6830000000000001 -15.9358052126654 -8.935912578524364 -17.423711979870845 0 0 0
4393 749 12 0 -14.587642254567331 -6.55013500074833 -18.30754337505983 0 0 0
4394 749 14 -1.054 -14.60576483172732 -6.598317787539074 -18.216028449637765 0 0 0
4395 749 13 0.527 -15.322264796714542 -7.19241905091709 -18.08891257977829 0 0 0
4793 849 12 0 -18.420223465688107 -3.174513194563609 -18.051818018871966 0 0 1
5740 1085 13 0.527 -15.523055863550972 -3.1531666541935017 -17.29039063338182 1 0 0
4794 849 14 -1.054 -18.415537015197913 -3.2057339208012685 -17.95167665001851 0 0 1
4795 849 13 0.527 -17.680902653438224 -3.019934119384022 -17.396448999716913 0 0 1
4396 749 13 0.527 -14.064304557035012 -6.469597358406769 -17.459233380019636 0 0 0
4217 705 12 0 -14.909933783116571 -3.8982724334647507 -18.741009764177306 0 0 0
4218 705 14 -1.054 -14.820459687829167 -3.9516240936836518 -18.75416183417548 0 0 0
5072 918 13 0.527 -15.60724446667136 -4.715003192917697 -13.86355311184009 0 0 0
5070 918 14 -1.054 -15.302011183106426 -4.850250737886972 -14.741634941471037 0 0 0
5069 918 12 0 -15.238200538274999 -4.929392148393225 -14.767899538748075 0 0 0
4510 778 14 -1.054 -16.516691565492778 -4.293562923332992 -12.14794681116228 0 0 0
1047 175 10 0.145 -11.686540592332417 -2.555054639741897 -12.992131972459168 0 0 0
5080 920 13 0.527 -12.331601412254386 -6.437561283016471 -13.908773199483127 0 0 0
5738 1085 14 -1.054 -15.930082884726477 -2.6757903758021584 -16.591156875468027 1 0 0
5737 1085 12 0 -16.006278736058682 -2.7165713790090322 -16.53152389517987 1 0 0
5210 953 14 -1.054 -16.392261739769133 -1.5834927883833743 -11.882985348676682 0 0 0
4380 745 13 0.527 -13.989251064849618 -5.698215974354342 -15.45585575270933 0 0 0
4377 745 12 0 -13.392529108271969 -6.31939903101871 -15.963844947307607 0 0 0
5078 920 14 -1.054 -11.677365278318844 -6.103383003662204 -13.323293128084385 0 0 0
5077 920 12 0 -11.641180247871734 -6.158301305306928 -13.241441958044796 0 0 0
103 18 8 0.418 -11.405186755770815 -3.088560621629192 -19.493619636906555 0 0 0
4323 731 13 0.527 -17.89280397919385 -7.654397829545546 -17.00445135727466 0 0 0
4468 767 13 0.527 -15.753721396798372 -5.700807674164828 -11.216151291084081 0 0 0
1049 175 9 0.04 -11.792358432472952 -1.666372514665163 -13.631134361827304 0 0 0
4379 745 13 0.527 -13.551284927473212 -7.2151283630844585 -15.548557024627268 0 0 0
5079 920 13 0.527 -11.372627809328048 -5.238767887066166 -13.528385133025758 0 0 0
1046 175 11 -0.6830000000000001 -10.68834929604233 -3.4530875885831485 -13.471153125001887 0 0 0
1048 175 9 0.04 -11.488576499621045 -2.2228146415839625 -11.96239296213462 0 0 0
1050 175 9 0.04 -12.634875620303056 -3.1000918935224178 -13.000394919727306 0 0 0
69 12 10 0.145 -15.894808489447037 -10.16317804638602 -18.147900522901413 0 0 0
5739 1085 13 0.527 -15.601160592445975 -1.8045245248501018 -16.46789740139104 1 0 0
181 31 8 0.418 -13.340463040174257 -7.4138750451053586 -19.03368218941385 0 0 0
5063 916 13 0.527 -19.433807046501716 -1.6805853352225846 -18.28932157575349 0 0 0
125 21 9 0.04 -0.4027902945586632 -6.122135789219913 -12.524758179864886 0 0 0
70 12 9 0.04 -14.886798708140674 -10.39132179738672 -18.52446703420212 0 0 0
72 12 9 0.04 -16.563681435462858 -10.048580623181659 -19.005775585055122 0 0 0
104 18 11 -0.6830000000000001 -12.223667419863395 -2.958768275406932 -18.989302531151736 0 0 0
4542 786 14 -1.054 -19.833899429219038 -9.428505889487173 -15.69285362098206 0 0 0
4796 849 13 0.527 -19.104906576308988 -3.693083893762932 -17.539673534239064 0 0 1
108 18 9 0.04 -12.779274400186015 -2.5619448475016675 -17.073834956357878 0 0 0
4291 723 13 0.527 -19.02547230658176 -5.836120638644754 -11.007500916277342 0 0 0
4413 754 12 0 -12.488756352075912 -5.786615279953745 -10.62808215280944 0 0 0
4940 885 13 0.527 -18.103685201541374 -4.450874525146947 -19.359324030846995 0 0 1
5062 916 14 -1.054 -19.960692738748634 -0.9164330976917654 -18.434061965853292 0 0 0
156 26 9 0.04 -10.255376554859412 -10.005974562640379 -14.762320019927238 0 0 0
292 49 9 0.04 -13.450868029892762 -9.104054195211807 -10.78279027797957 0 0 0
107 18 9 0.04 -11.214337015907839 -1.8417954930860816 -17.516073131489488 0 0 0
293 49 9 0.04 -12.463116026002885 -10.402079584384786 -11.508107608710484 0 0 0
182 31 11 -0.6830000000000001 -12.566831014234232 -7.8222831389634315 -19.452953832980967 0 0 0
220 37 9 0.04 -5.302697442885842 -5.875050752580572 -16.64787066223509 0 0 0
1138 190 9 0.04 -13.84745040237474 -1.0523261033814144 -14.19779902934875 0 0 0
4466 767 14 -1.054 -15.379763914419648 -6.189580303052905 -10.506401987479709 0 0 0
4272 718 13 0.527 -15.637176244829828 -11.933253830124308 -10.74540871838103 0 0 0
155 26 9 0.04 -8.797694348844809 -11.024636008632791 -14.735671236891397 0 0 0
204 34 9 0.04 -6.867586579774807 -6.411874348029254 -11.471947313031258 0 0 0
774 129 9 0.04 -4.032555931389091 -20.156434310822096 -19.050729291760923 0 0 1
4975 894 13 0.527 -0.2418840984665387 -1.5206227479154037 -12.322650254807515 0 0 0
1190 199 11 -0.6830000000000001 -5.209591278402796 -2.9196449541913303 -13.705725595328847 0 0 0
5223 956 13 0.527 -6.475019161583239 -2.5503856388231156 -17.448492956875064 0 0 0
5804 1101 13 0.527 -0.399319609004813 -9.758620636662574 -13.147693315915213 0 0 0