LAMMPS data file via write_data, version 22 Jul 2025, timestep = 5000, units = real

2368 atoms
14 atom types
2808 bonds
12 bond types
4728 angles
16 angle types
3840 dihedrals
12 dihedral types
1152 impropers
4 improper types

0 34.02400207519531 xlo xhi
0 34.02400207519531 ylo yhi
0 34.02400207519531 zlo zhi

Masses

1 12.011
2 12.011
3 12.011
4 1.008
5 1.008
6 14.007
7 65.38
8 1.008
9 15.035
10 15.9994
11 0.0001
12 15.999
13 1.00784
14 0.0001

Pair Coeffs # lj/cut/coul/long

1 0.086 3.4
2 0.086 3.4
3 0.1094 3.4
4 0.015 2.511
5 0.0157 2.65
6 0.17 3.25
7 0.0125 1.96
8 0.2195 3.6499
9 0.1791 3.1655
10 0 1
11 0.2108 3.637
12 0.1848 3.165
13 0 1
14 0 1

Bond Coeffs # harmonic

1 346.543 1.49
2 488 1.335
3 540.249 1.35
4 367 1.08
5 440.221 1.37
6 340 1.09
7 78.5 2.011
8 0 0.945
9 0 1.43
10 0 0.037
11 0 0.105
12 0 0.9572

Angle Coeffs # harmonic

1 48.088 109.32
2 71.254 105.27
3 48.68 128.33
4 49.451 125.67
5 76.75 108.65
6 32.477 126.4
7 66.015 123.92
8 49.954 125.68
9 35 109.5
10 75.484 112.16
11 35.24 109.48
12 0 108.5
13 0 127.53
14 0 123.97
15 0 52.26
16 0 104.52

Dihedral Coeffs # charmm

1 2.325 2 180 0
2 2.325 2 180 0
3 2.325 2 180 0
4 2.325 2 180 0
5 5 2 180 0
6 5 2 180 0
7 5 2 180 0
8 5 2 180 0
9 5.15 2 180 0
10 5.15 2 180 0
11 5.15 2 180 0
12 0 0 0 0

Improper Coeffs # harmonic

1 2 180
2 2 180
3 2 180
4 0 0

Atoms # full

1046 1 2 -0.192556521739 1.6517974333473544 5.239472513392139 6.21610264744899 0 0 0
1058 1 4 0.158343478261 2.600488379573168 5.241841016069744 6.716453650436509 0 0 0
1575 1 1 0.433743478261 8.148744715068341 2.03074078505347 2.122880705563408 0 0 0
1576 1 2 -0.192556521739 10.011293932728723 3.1084460364498945 1.9661189130171022 0 0 0
1577 1 2 -0.192556521739 10.183025646122008 2.140619798360213 2.848751009371772 0 0 0
1580 1 3 -0.602556521739 6.773074320239139 1.5406010395783687 1.8363143045342343 0 0 0
1581 1 5 0.157043478261 6.837146818251025 0.598229681224512 1.2843883617606053 0 0 0
1582 1 5 0.157043478261 6.157367221118269 2.2641285442653794 1.2904023290596682 0 0 0
1583 1 5 0.157043478261 6.26968099910809 1.3405756468656398 2.767313095408224 0 0 0
1584 1 6 -0.300956521739 8.757705371619439 3.0432051916734117 1.505424824095613 0 0 0
1585 1 6 -0.300956521739 9.041911342845323 1.4176560963440936 2.9622849437290237 0 0 0
1587 1 7 0.736043478261 8.595066107396573 0.05415702546640017 4.2737079426757765 0 0 0
1598 1 2 -0.192556521739 6.251268300060615 1.7192137966181704 5.466174002167626 0 0 0
1610 1 4 0.158343478261 6.230852164014158 2.530984192852215 4.7481607177255984 0 0 0
1646 1 6 -0.300956521739 7.019850870191536 0.6319309705843361 5.433616258728346 0 0 0
1876 1 2 -0.192556521739 5.701487388209312 5.23492368841642 1.8599157692667723 0 0 0
1888 1 4 0.158343478261 5.818191940906509 4.4717180474964255 2.593354072218061 0 0 0
1924 1 6 -0.300956521739 6.5439133726555765 5.371733069934118 0.7637106662979385 0 0 0
1578 1 4 0.158343478261 10.806832243768222 3.79873996098991 1.7524040359036486 0 0 0
1579 1 4 0.158343478261 11.143786334540877 2.014013503699804 3.292690289712657 0 0 0
1666 1 7 0.736043478261 8.122848488051082 4.184590848164492 0.04769563276032252 0 0 1
2278 19 9 0.1546 12.267744408586625 5.080439461722168 5.795704002003663 0 0 0
2280 19 11 -0.6544 12.267729998019853 5.117788406519143 5.767045582387639 0 0 0
2277 19 10 0 12.88563493091881 4.396847239260061 5.58609012889082 0 0 0
2257 14 10 0 19.8287709404383 3.6511875479387754 3.4574141330384363 0 0 0
2258 14 9 0.1546 19.613018968031707 2.818822571839191 3.065438836667092 0 0 0
2260 14 11 -0.6544 19.618237994076154 2.7810203850350854 3.093007031021726 0 0 0
2259 14 8 0.4998 20.221564780467126 2.7701969378671985 1.7729576794009079 0 0 0
338 1 1 0.433743478261 25.511354100307578 1.8423205410015064 2.3909333365223326 0 0 0
339 1 2 -0.192556521739 27.2327109153114 3.092854920169236 2.738396315378941 0 0 0
340 1 2 -0.192556521739 27.216448426425444 2.1154340937874454 3.6708213665232856 0 0 0
341 1 4 0.158343478261 27.774758600400393 2.705867341706227 1.8956098127456749 0 0 0
342 1 4 0.158343478261 27.82325448329026 1.2538825917975436 3.4748113624539276 0 0 0
343 1 3 -0.602556521739 24.042927654508937 1.4943469893971775 2.3369014135568666 0 0 0
344 1 5 0.157043478261 23.963750499561282 0.47510136321423574 2.156745191916762 0 0 0
345 1 5 0.157043478261 23.598498813811894 2.017719459134534 1.5076861746868402 0 0 0
346 1 5 0.157043478261 23.455999219170344 1.7132659091659843 3.2277371979486627 0 0 0
347 1 6 -0.300956521739 25.906291901551516 3.178837763035492 2.308559301938617 0 0 0
348 1 6 -0.300956521739 25.88277941079965 1.7199123920212944 3.6923863533394505 0 0 0
350 1 7 0.736043478261 25.64430447508158 33.93333793057197 4.619079718850508 0 -1 0
368 1 4 0.158343478261 23.957188697318706 2.2155242452965265 5.466596703527251 0 0 0
573 1 4 0.158343478261 23.248447711040996 4.696504311925497 2.9314652366072944 0 0 0
563 1 2 -0.192556521739 23.0976027329962 5.2629412349843365 2.0083189136838304 0 0 0
603 1 6 -0.300956521739 23.778557998172687 5.188408516755246 0.7976639040720539 0 0 0
412 1 7 0.736043478261 25.530095022283934 4.066914544487405 0.49599470116197575 0 0 1
586 1 5 0.157043478261 27.36391434291017 5.678574456997787 2.673047038487354 0 0 0
358 1 2 -0.192556521739 23.869808546655033 1.5999283075832984 6.35035569112981 0 0 0
1021 1 1 0.433743478261 2.0647089547808752 8.347913527038497 2.3227777239285556 0 0 0
1022 1 2 -0.192556521739 1.7759408006879915 10.351466564484687 2.9634267506279333 0 0 0
1023 1 2 -0.192556521739 2.7626628317185777 10.38250879714244 2.0513326051097516 0 0 0
1024 1 4 0.158343478261 1.4095592320527837 11.211186395950307 3.461218598652979 0 0 0
1025 1 4 0.158343478261 2.519711227949246 11.23010301188024 1.4174901601652528 0 0 0
1026 1 3 -0.602556521739 1.263752781932034 7.2264795017138805 1.7959428363870424 0 0 0
1027 1 5 0.157043478261 0.779432538032047 6.726395188527167 2.618780825827883 0 0 0
1028 1 5 0.157043478261 1.823188681992615 6.6016543250453585 1.136965117819287 0 0 0
1029 1 5 0.157043478261 0.4044487933078563 7.604591750986931 1.2597977766870183 0 0 0
1030 1 6 -0.300956521739 1.602377156609586 9.056282763757547 3.336835378409756 0 0 0
1031 1 6 -0.300956521739 2.4950765245842064 9.19104559120675 1.4401555175600234 0 0 0
1048 1 2 -0.192556521739 1.6099997538358517 6.187066064072122 5.272168682247547 0 0 0
1060 1 4 0.158343478261 2.4686365520239812 6.5680482119146895 4.743270802241984 0 0 0
1096 1 6 -0.300956521739 0.5500459536085384 6.971485528601628 5.577315735987862 0 0 0
1874 1 2 -0.192556521739 4.818555720921748 6.231453029176794 1.7752830943776279 0 0 0
1886 1 4 0.158343478261 3.9557234862450685 6.344328974013221 2.4000545500665744 0 0 0
1922 1 6 -0.300956521739 5.063509116566368 6.922757035847554 0.6295817662592886 0 0 0
1088 1 5 0.157043478261 1.580369277497706 9.032652348792857 6.742656270101116 0 0 0
1906 1 5 0.157043478261 7.561596686162644 10.630847058976466 2.102784364178263 0 0 0
1897 1 3 -0.602556521739 9.794537370728355 6.868115963474761 1.6096316626346674 0 0 0
1898 1 3 -0.602556521739 6.798797900468251 10.121933613894972 1.6282707627518418 0 0 0
1903 1 5 0.157043478261 6.194845520866196 9.956402839262527 2.5393327801490297 0 0 0
1904 1 5 0.157043478261 10.435345122137994 6.713643323440773 2.4528026311015187 0 0 0
1905 1 5 0.157043478261 8.791415336730008 6.5887522897672435 2.0157564231721112 0 0 0
1915 1 5 0.157043478261 7.303496751389078 9.162570744135502 1.646559479265379 0 0 0
1916 1 5 0.157043478261 9.61767860221528 7.90256721581691 1.566528066172958 0 0 0
1673 1 1 0.433743478261 10.292923039664235 6.315078610925783 0.2609748589360574 0 0 1
1869 1 1 0.433743478261 14.764272677746076 8.59356905482486 1.8965849643025623 0 0 0
1873 1 2 -0.192556521739 11.796646469907262 10.78529634499481 1.639453260697362 0 0 0
1877 1 2 -0.192556521739 14.757570123967849 6.62539143237662 2.8339518954125658 0 0 0
1884 1 2 -0.192556521739 13.74901205576329 6.754251346622554 1.9532630359033942 0 0 0
1885 1 4 0.158343478261 12.58749444351707 10.658098211806129 2.3807905187578493 0 0 0
1889 1 4 0.158343478261 14.96913112654372 5.759156043028228 3.4023711601896816 0 0 0
1896 1 4 0.158343478261 12.906544342166027 6.066308115452588 1.6035236236240513 0 0 0
1899 1 3 -0.602556521739 15.193012397524573 9.917005996159107 1.4452331584280862 0 0 0
1907 1 5 0.157043478261 15.171896771407456 10.721130383252952 2.12331641544617 0 0 0
1913 1 5 0.157043478261 14.638543404762627 10.41472600381057 0.62901773164769 0 0 0
1917 1 5 0.157043478261 16.148709942331656 9.995242369605808 1.021808790417951 0 0 0
1921 1 6 -0.300956521739 11.503716734247563 10.052893861724145 0.47315753503492336 0 0 0
1925 1 6 -0.300956521739 15.353027113930104 7.8627613209303995 2.8427688261191917 0 0 0
1932 1 6 -0.300956521739 13.76165325733287 7.935719937982088 1.382930558943095 0 0 0
1983 1 2 -0.192556521739 15.12187077275908 10.81261918628203 5.028798492659425 0 0 0
2031 1 4 0.158343478261 14.322785195672363 10.603886694452619 4.338363683716954 0 0 0
2175 1 6 -0.300956521739 16.322196115304347 10.167672936123296 5.025059747778737 0 0 0
1940 1 7 0.736043478261 16.922126348910908 8.495124824130869 4.0007564108090286 0 0 0
1659 1 7 0.736043478261 12.561739938249945 8.433989665032632 33.907639986660804 0 0 0
561 1 2 -0.192556521739 22.070894912235286 6.126916056002039 1.8023340883643497 0 0 0
571 1 4 0.158343478261 21.2623746721895 6.497186314147254 2.531217885262485 0 0 0
601 1 6 -0.300956521739 22.399132306273124 6.709007663558836 0.6195020930390335 0 0 0
1870 1 1 0.433743478261 19.05221517297436 8.531759413932788 1.823793754563445 0 0 0
1878 1 2 -0.192556521739 19.072329240405015 10.569836418045343 2.828698912481157 0 0 0
1883 1 2 -0.192556521739 20.08587962329747 10.538327581674773 1.9049782741615866 0 0 0
1895 1 4 0.158343478261 20.714384332145528 11.346860688002366 1.5820881280092824 0 0 0
1900 1 3 -0.602556521739 18.61342734400082 7.117314742726117 1.531925811074814 0 0 0
1908 1 5 0.157043478261 18.34180119734737 6.663424096767194 2.5032642660705826 0 0 0
1914 1 5 0.157043478261 19.26210283020761 6.360663890134486 1.1235207174714057 0 0 0
1918 1 5 0.157043478261 17.770326238407453 7.066614796168604 0.8986362201881956 0 0 0
1926 1 6 -0.300956521739 18.43765191328838 9.300825105194052 2.7144480088085956 0 0 0
1931 1 6 -0.300956521739 20.02477438724789 9.271794649931616 1.3770937165538841 0 0 0
1984 1 2 -0.192556521739 18.787691046434546 6.41779986894143 5.184231475975635 0 0 0
2032 1 4 0.158343478261 19.506009387265856 6.610430422474627 4.406276703017292 0 0 0
2176 1 6 -0.300956521739 17.600050557170405 7.011214101561281 5.199133946542533 0 0 0
1890 1 4 0.158343478261 18.76911110917572 11.377839651131076 3.4971589200906603 0 0 0
580 1 3 -0.602556521739 27.081632412731217 6.353630720880977 1.9148374024257369 0 0 0
581 1 3 -0.602556521739 23.720167960778888 9.852110163830904 1.5474040445884676 0 0 0
585 1 5 0.157043478261 24.65504210777251 10.281430357984528 1.8047786703724036 0 0 0
588 1 5 0.157043478261 23.711702091835217 8.800264844899555 1.4127480116361126 0 0 0
595 1 5 0.157043478261 23.020618021463765 10.252972790937568 2.350113848225878 0 0 0
596 1 5 0.157043478261 27.645974739582332 7.246041089229939 2.158935413239348 0 0 0
418 1 1 0.433743478261 27.643496347522706 5.96948627328465 0.651901791552572 0 0 1
587 1 5 0.157043478261 26.005755517302873 6.485603188684897 1.9785987516970092 0 0 0
600 1 6 -0.300956521739 28.18365572895554 9.837765762410719 0.7683689761956162 0 0 0
420 1 1 0.433743478261 23.39778757256317 10.400395762592664 0.34916175027466845 0 0 1
560 1 2 -0.192556521739 28.51594028529316 10.48899465725972 1.97536466307311 0 0 0
602 1 6 -0.300956521739 27.133195635185327 11.475792283703452 0.6383039994225171 0 0 0
1035 1 7 0.736043478261 33.958323739630806 8.486293348888337 4.382823572385169 -1 0 0
557 1 1 0.433743478261 31.786397057766596 8.587608346018829 2.1932975132267187 0 0 0
564 1 2 -0.192556521739 31.845468027847485 6.609044505748038 3.2531949559312596 0 0 0
569 1 2 -0.192556521739 30.80162338351656 6.50930069883875 2.4360148197778417 0 0 0
570 1 4 0.158343478261 29.060369243799553 10.06485656521536 2.815937869235464 0 0 0
574 1 4 0.158343478261 32.15402221996601 5.783989040623047 3.8980303962297254 0 0 0
579 1 4 0.158343478261 30.282276917038388 5.598101787592252 2.1505818334615756 0 0 0
582 1 3 -0.602556521739 32.08743432635305 9.98532755354684 1.7374881698107945 0 0 0
589 1 5 0.157043478261 32.80314199748652 10.360989128778664 2.4828656826569224 0 0 0
594 1 5 0.157043478261 31.230858318811837 10.667293343747488 1.7100796090929864 0 0 0
597 1 5 0.157043478261 32.54799548791957 10.039980936118544 0.7357521660586689 0 0 0
604 1 6 -0.300956521739 32.446519373316306 7.849210998003681 3.107155986205597 0 0 0
609 1 6 -0.300956521739 30.774499376209842 7.738499259060536 1.8740417238797629 0 0 0
644 1 2 -0.192556521739 32.12121927083845 10.598539688273837 5.641121094988761 0 0 0
680 1 4 0.158343478261 31.292107147822254 10.469695374615974 4.990885437207082 0 0 0
788 1 6 -0.300956521739 33.341021817961156 10.082864461178174 5.603788464912579 0 0 0
2347 36 13 0.527 27.319851796118282 4.876838376576895 8.206427575996532 0 0 0
1872 1 1 0.433743478261 8.812820471167695 14.914584866298203 2.2791118085504656 0 0 0
1875 1 2 -0.192556521739 10.840717487624335 11.724136395531591 1.7283283457364258 0 0 0
1880 1 2 -0.192556521739 7.18671871105968 13.468266017849396 2.740728736960683 0 0 0
1881 1 2 -0.192556521739 7.1837490943761635 14.450844786726195 3.637331433107982 0 0 0
1887 1 4 0.158343478261 10.721683122925791 12.41846416895556 2.5447108427845335 0 0 0
1892 1 4 0.158343478261 6.49980650390463 12.583978978519168 2.775319072005049 0 0 0
1893 1 4 0.158343478261 6.530453730590859 14.594052145825426 4.4649314253533 0 0 0
1902 1 3 -0.602556521739 9.922964821770712 15.523046633102082 1.5171782822870217 0 0 0
1909 1 5 0.157043478261 10.43874413331556 16.359145662961396 2.045933202663155 0 0 0
1911 1 5 0.157043478261 9.585589799386224 16.096477708822206 0.6628019851746413 0 0 0
1919 1 5 0.157043478261 10.623409186683542 14.77139954375015 1.063015152724446 0 0 0
1923 1 6 -0.300956521739 10.06406974674259 11.358284269838316 0.6351002605052434 0 0 0
1928 1 6 -0.300956521739 8.21726947465006 13.75424033683823 1.8900277025582743 0 0 0
1929 1 6 -0.300956521739 8.131920642555553 15.343226399092096 3.3355997851774792 0 0 0
1971 1 2 -0.192556521739 10.625174838317541 15.413118310517104 5.521495967636147 0 0 0
2019 1 4 0.158343478261 10.298397647735657 14.602167905322723 4.899337466600119 0 0 0
2163 1 6 -0.300956521739 10.073346357084299 16.673415059998707 5.51886596856342 0 0 0
1934 1 7 0.736043478261 8.448228412375233 17.09235146504876 4.394205630891988 0 0 0
559 1 1 0.433743478261 25.700112932447734 14.476535966110573 2.353102800254959 0 0 0
562 1 2 -0.192556521739 27.44434019964804 11.334861967374326 2.047089250933891 0 0 0
566 1 2 -0.192556521739 23.501610006702972 13.69630619635518 2.27155781285704 0 0 0
567 1 2 -0.192556521739 23.64112771163437 14.74943928344904 3.1159105384770673 0 0 0
572 1 4 0.158343478261 27.100520969980522 11.743321935614585 2.968168944702342 0 0 0
576 1 4 0.158343478261 22.673396183852848 13.100298368986971 1.9840833975078143 0 0 0
577 1 4 0.158343478261 22.784142418488273 15.17061130699764 3.654439054663498 0 0 0
584 1 3 -0.602556521739 27.16685338656727 14.670131929039501 2.073763589106626 0 0 0
590 1 5 0.157043478261 27.388772394582308 15.740561837618209 2.1660324964652564 0 0 0
592 1 5 0.157043478261 27.34779650197569 14.345036851693665 1.0669605911470508 0 0 0
598 1 5 0.157043478261 27.797560586838767 14.124789042189663 2.757809453286849 0 0 0
606 1 6 -0.300956521739 24.815734001305476 13.581157227570172 1.8990136254686845 0 0 0
607 1 6 -0.300956521739 24.956308232073216 15.151780691000646 3.1942662081366415 0 0 0
635 1 2 -0.192556521739 27.66573074449925 15.115493420582661 5.694010380616662 0 0 0
671 1 4 0.158343478261 27.41463111707428 14.257767901157342 5.0695654467117475 0 0 0
779 1 6 -0.300956521739 27.18692488674605 16.344127742648542 5.6084285696342295 0 0 0
611 1 7 0.736043478261 25.599752570743604 16.809800890892888 4.498390557321208 0 0 0
1273 1 4 0.158343478261 6.317009244961071 21.674015774035407 2.4590011050233205 0 0 0
1303 1 6 -0.300956521739 6.959382042083899 22.61357462304981 0.6504592406007669 0 0 0
1871 1 1 0.433743478261 8.086599498841407 19.080553469433536 2.222500839379271 0 0 0
1879 1 2 -0.192556521739 10.177961258881433 20.15733174235672 2.282448297728894 0 0 0
1882 1 2 -0.192556521739 10.013117389045112 19.199235707701657 3.2373083573266994 0 0 0
1894 1 4 0.158343478261 10.732877112631126 18.872266276349638 4.021090848521331 0 0 0
1901 1 3 -0.602556521739 6.766128783003423 18.679972652966043 1.9299079364374832 0 0 0
1910 1 5 0.157043478261 6.5148084924374965 17.820568958471654 1.2629083965902184 0 0 0
1912 1 5 0.157043478261 6.1875101311241165 19.313195628265465 1.3426970720591167 0 0 0
1920 1 5 0.157043478261 6.145018222181023 18.42806858395495 2.763820828350007 0 0 0
1927 1 6 -0.300956521739 8.94478412988863 20.026371512319322 1.7187941671773237 0 0 0
1930 1 6 -0.300956521739 8.826204204939113 18.57140378837568 3.1711244866118498 0 0 0
2020 1 4 0.158343478261 6.401521177261775 19.65681048686182 4.865134166051943 0 0 0
2164 1 6 -0.300956521739 6.8649477735495 17.610703565568045 5.606111536981521 0 0 0
1263 1 2 -0.192556521739 6.1730325210179195 22.474609634439233 1.7638810481742706 0 0 0
1111 1 7 0.736043478261 8.430474571767222 21.207831669438683 0.141701577267773 0 0 1
1891 1 4 0.158343478261 10.968584940019742 20.853988894366733 2.0888100112182584 0 0 0
109 1 2 -0.192556521739 23.59143018603477 22.019738338872738 1.7667819775547806 0 0 0
117 1 4 0.158343478261 24.071252478010702 21.48721136221097 2.597980068781998 0 0 0
141 1 6 -0.300956521739 24.02176883681612 21.976072414153357 0.4970972788467875 0 0 0
558 1 1 0.433743478261 25.391813116659332 18.86176503644998 2.112977591910484 0 0 0
565 1 2 -0.192556521739 27.21716023558036 20.164082105133303 2.3160363203399745 0 0 0
568 1 2 -0.192556521739 27.30149536716117 19.20366398320911 3.2596741601306105 0 0 0
583 1 3 -0.602556521739 24.1215392258928 18.398249590088 1.5337498164441845 0 0 0
591 1 5 0.157043478261 23.83900367587812 17.417353514226363 1.955909458943773 0 0 0
593 1 5 0.157043478261 24.18319471117601 18.407000839423514 0.4524463883239539 0 0 0
599 1 5 0.157043478261 23.397815016618154 19.169201270858768 1.8408609467758548 0 0 0
605 1 6 -0.300956521739 26.111595491030833 19.870832702617502 1.655892338872158 0 0 0
608 1 6 -0.300956521739 26.14615511972697 18.462332169425725 3.1686187146969567 0 0 0
636 1 2 -0.192556521739 23.782867651854804 18.843265930948498 5.724736380908449 0 0 0
672 1 4 0.158343478261 24.10269172350766 19.657379636180547 5.096718370648953 0 0 0
780 1 6 -0.300956521739 24.262676127139542 17.549978530949787 5.735863509075774 0 0 0
4 1 7 0.736043478261 25.671158510397465 20.903390293203802 0.03853420364673724 0 0 1
575 1 4 0.158343478261 27.86913693929669 20.989917984280314 2.1420242082171232 0 0 0
578 1 4 0.158343478261 28.13154233552605 18.99496252494613 3.919518972723208 0 0 0
118 1 4 0.158343478261 31.821083253700582 22.820515447446176 4.004155409743639 0 0 0
121 1 4 0.158343478261 29.895904946675874 22.9828940860098 2.237377561723122 0 0 0
862 1 1 0.433743478261 2.0600157988658285 25.451988144195674 1.9947895750641507 0 0 0
863 1 2 -0.192556521739 1.6511134052615346 27.5417609342082 2.539949476824384 0 0 0
864 1 2 -0.192556521739 2.762511051198647 27.55078104107331 1.7646960136234853 0 0 0
867 1 3 -0.602556521739 1.8528195422508373 23.996149874117133 1.784148565290662 0 0 0
868 1 5 0.157043478261 1.275696169060076 23.596080708163377 2.597183357017144 0 0 0
869 1 5 0.157043478261 2.8131623897906306 23.508928360156776 1.758554581192426 0 0 0
870 1 5 0.157043478261 1.3126737404179194 23.880123293288364 0.8487248032531599 0 0 0
871 1 6 -0.300956521739 1.3179926235318875 26.21084724327692 2.759515605118031 0 0 0
872 1 6 -0.300956521739 2.928995238454976 26.23040588554536 1.3746185704210496 0 0 0
875 1 7 0.736043478261 0.006846846796953276 25.466049367074337 4.150741059372978 0 0 0
886 1 2 -0.192556521739 1.8323617660372749 23.6597864512033 5.5890850878809575 0 0 0
896 1 4 0.158343478261 2.6716230454762893 23.99924303146491 4.971540090470219 0 0 0
926 1 6 -0.300956521739 0.5466027780493415 24.075056262717002 5.439507540591149 0 0 0
1271 1 4 0.158343478261 4.598602256386545 23.74686065463619 2.5869859055470372 0 0 0
865 1 4 0.158343478261 1.3240283160442834 28.415962020271085 3.0777490587382705 0 0 0
866 1 4 0.158343478261 3.4540855730621534 28.367553585746325 1.5988117082428142 0 0 0
1261 1 2 -0.192556521739 5.342993383259427 23.52443732876681 1.8488297133252787 0 0 0
1106 1 7 0.736043478261 4.259637863210223 25.56769599904925 0.011983738730049001 0 0 1
1301 1 6 -0.300956521739 5.481132584676042 24.181876359153716 0.6182973101344208 0 0 0
1280 1 3 -0.602556521739 10.552256101029629 23.793797780741986 1.6726499042896654 0 0 0
1281 1 3 -0.602556521739 7.122289291201386 27.138661038264928 1.4839465314829667 0 0 0
1285 1 5 0.157043478261 7.722789765538144 26.197321615332257 1.4060167771231376 0 0 0
1286 1 5 0.157043478261 11.003106907455537 23.16553528106225 2.4518357453685393 0 0 0
1287 1 5 0.157043478261 9.464587955963156 23.83948912272924 1.716494335998638 0 0 0
1288 1 5 0.157043478261 6.290338248929788 26.959381076492875 2.2016031781654357 0 0 0
1295 1 5 0.157043478261 7.773854730119067 27.938284876411732 1.7980385291024463 0 0 0
1114 1 1 0.433743478261 10.889992641535946 23.271466389309538 0.32089751368665786 0 0 1
1296 1 5 0.157043478261 10.929811521714553 24.815175427238774 1.791149870653998 0 0 0
1116 1 1 0.433743478261 6.5791594211056985 27.496847079613296 0.09870943062438561 0 0 1
1117 1 1 0.433743478261 6.33520534793719 23.495426239702248 33.907867947685325 0 0 0
1257 1 1 0.433743478261 15.371182677705377 25.564943380895066 1.9836234778186908 0 0 0
1260 1 2 -0.192556521739 12.001984259789886 27.854695307919787 1.6777388963040207 0 0 0
1264 1 2 -0.192556521739 15.41454288845002 23.61500497398268 2.9961976252281257 0 0 0
1269 1 2 -0.192556521739 14.36557001246476 23.645210982269308 2.1655786952325853 0 0 0
1270 1 4 0.158343478261 12.71299744539525 27.624419821130306 2.4955650840759183 0 0 0
1274 1 4 0.158343478261 15.759635513257727 22.829165859788283 3.6420409088843932 0 0 0
1279 1 4 0.158343478261 13.763458551610178 22.76781944566126 1.8407943340063122 0 0 0
1282 1 3 -0.602556521739 15.680882779607993 27.0202473223085 1.6291250223437508 0 0 0
1289 1 5 0.157043478261 15.490080031151189 27.580610679847403 2.522520289807108 0 0 0
1293 1 5 0.157043478261 15.0283931702122 27.418794165859072 0.8384343428599731 0 0 0
1297 1 5 0.157043478261 16.68632108234483 27.152212482016132 1.301113195877661 0 0 0
1300 1 6 -0.300956521739 11.835960517811426 26.979613296293124 0.628483161368355 0 0 0
1304 1 6 -0.300956521739 15.920345258478495 24.91569683696461 3.0111047553528465 0 0 0
1309 1 6 -0.300956521739 14.301532264764155 24.907431347063884 1.560286791610589 0 0 0
1383 1 4 0.158343478261 14.475600198782374 27.280191110587914 4.858365801036124 0 0 0
1105 1 7 0.736043478261 13.03639699326476 25.473325567807237 0.10943916994413107 0 0 1
115 1 4 0.158343478261 22.062723927033407 23.050181227977145 2.857624833266824 0 0 0
1258 1 1 0.433743478261 19.489736710702203 25.498871009557377 2.199894360442345 0 0 0
1265 1 2 -0.192556521739 19.36615215534602 27.5790083779584 2.997305072674045 0 0 0
1268 1 2 -0.192556521739 20.377350184635187 27.50768247520284 2.1313803802083626 0 0 0
1275 1 4 0.158343478261 19.03357838630559 28.402380664746822 3.60198364722513 0 0 0
1278 1 4 0.158343478261 20.88973365930276 28.378557883559047 1.7713579827462205 0 0 0
1283 1 3 -0.602556521739 19.095460308845567 24.11693648941897 1.7748795600830607 0 0 0
1290 1 5 0.157043478261 18.580775511385067 23.598017049075725 2.565947068472421 0 0 0
1294 1 5 0.157043478261 19.99326897602504 23.537545724353976 1.455973477788364 0 0 0
1298 1 5 0.157043478261 18.45222422439523 24.15090050454235 0.8917905172041115 0 0 0
1305 1 6 -0.300956521739 18.899602860719344 26.25781899526941 3.10348284566187 0 0 0
1308 1 6 -0.300956521739 20.416714720451928 26.19896121308567 1.59663328209084 0 0 0
1314 1 7 0.736043478261 17.320178844790824 25.549496539224297 4.205256703644661 0 0 0
1348 1 2 -0.192556521739 19.23244249925072 23.46381975186801 5.373246835125696 0 0 0
1384 1 4 0.158343478261 20.08918052484644 23.685296228883814 4.786762334570252 0 0 0
107 1 2 -0.192556521739 22.76423275853009 23.049829959887806 2.012801666729402 0 0 0
139 1 6 -0.300956521739 22.700242524455234 23.671988235056013 0.7598678192063846 0 0 0
2 1 7 0.736043478261 21.539145920166543 25.41659993057943 0.020812883173146685 0 0 1
2355 38 13 0.527 27.56367678983274 29.327293078045166 10.478875087613448 0 0 0
2356 38 13 0.527 28.596188122177253 28.134467753280763 10.366976259894555 0 0 0
122 1 3 -0.602556521739 26.758096435143557 23.819202083618958 1.27408522434716 0 0 0
123 1 3 -0.602556521739 23.84599607983969 27.03701837559205 1.6334276290027487 0 0 0
126 1 5 0.157043478261 24.317275948727644 27.847299189032203 2.1687981979392283 0 0 0
127 1 5 0.157043478261 26.798773514454943 23.19895645341017 2.195049189659071 0 0 0
128 1 5 0.157043478261 25.726469031097896 23.914722427043937 0.8508795762329643 0 0 0
129 1 5 0.157043478261 24.45627048510734 26.12446374907243 1.6910331591126715 0 0 0
134 1 5 0.157043478261 22.896705414111903 26.870073958864086 2.1238677421607526 0 0 0
135 1 5 0.157043478261 27.17823245625994 24.804827338137848 1.5360203912750043 0 0 0
7 1 1 0.433743478261 27.556183285332583 23.193060638852664 0.155567752236157 0 0 1
9 1 1 0.433743478261 23.675645443039432 27.340807551357265 0.1788179249668365 0 0 1
2353 38 12 0 27.816373991972714 28.457700353547942 10.903082584761501 0 0 0
2354 38 14 -1.054 27.86158649748203 28.50456340956385 10.820713395579988 0 0 0
108 1 2 -0.192556521739 27.58564126776802 28.45857076638452 1.9587856317414276 0 0 0
10 1 1 0.433743478261 23.560357359024017 23.108253432080517 33.96531058483503 0 0 0
104 1 1 0.433743478261 31.94947173033971 25.551290957431615 2.097664519751418 0 0 0
106 1 2 -0.192556521739 28.632705134151525 27.625453080213134 1.901079075512814 0 0 0
110 1 2 -0.192556521739 31.69147834156336 23.676135517090067 3.3025111331634642 0 0 0
113 1 2 -0.192556521739 30.68092410427323 23.724153904976774 2.4202375250365655 0 0 0
114 1 4 0.158343478261 29.141819841600764 27.12125490847656 2.7276184337923857 0 0 0
124 1 3 -0.602556521739 32.32553969570496 26.941146272107787 1.6816347345792464 0 0 0
130 1 5 0.157043478261 31.413775276137617 27.48767458942463 1.4567173153970774 0 0 0
133 1 5 0.157043478261 32.98587668804163 26.936329288937088 0.8105845332482228 0 0 0
136 1 5 0.157043478261 32.82087575054475 27.39529215893526 2.549617635223567 0 0 0
138 1 6 -0.300956521739 28.597877010623883 27.00561925300204 0.6719981747834223 0 0 0
142 1 6 -0.300956521739 32.395786709531905 24.874371017999593 3.139146106636688 0 0 0
145 1 6 -0.300956521739 30.837937870277187 24.86286139685097 1.684474604299454 0 0 0
170 1 2 -0.192556521739 32.479237484400265 27.66177479376061 5.536837836584956 0 0 0
196 1 4 0.158343478261 31.517116667183576 27.271584226017115 5.159012604991957 0 0 0
274 1 6 -0.300956521739 33.699977134982745 27.12859181994959 5.4142311486203045 0 0 0
2253 13 10 0 28.35510469137331 26.56114502542393 5.866397790760292 0 0 0
2254 13 9 0.1546 28.518018642088744 26.03320353439607 5.099741527032145 0 0 0
2256 13 11 -0.6544 28.54047230284104 26.05458028596157 5.064313903469058 0 0 0
2255 13 8 0.4998 27.31071526007448 25.33820836585718 4.779428774422118 0 0 0
900 1 4 0.158343478261 1.5522247354135887 30.517564938947615 5.827228569932608 0 0 0
1259 1 1 0.433743478261 8.696737775633482 31.790007081976498 2.168424776283579 0 0 0
1262 1 2 -0.192556521739 11.002846196314684 28.773002758516725 1.6482911299183567 0 0 0
1266 1 2 -0.192556521739 6.778449275470691 30.85100946479511 2.13177555159445 0 0 0
1267 1 2 -0.192556521739 6.747524022102388 31.739898066698697 3.1106428979693663 0 0 0
1272 1 4 0.158343478261 10.81309726981199 29.661263905082595 2.2790832506980494 0 0 0
1276 1 4 0.158343478261 5.890345763466379 30.29312237039954 1.854833156999995 0 0 0
1277 1 4 0.158343478261 5.922443682339641 31.942976641577058 3.7656551464507437 0 0 0
1284 1 3 -0.602556521739 9.91389179565914 32.36115054817792 1.6643528906415517 0 0 0
1291 1 5 0.157043478261 9.83226574381784 33.436830037028805 1.4365373805306507 0 0 0
1292 1 5 0.157043478261 10.24477013869268 31.84525471173523 0.7814793577084893 0 0 0
1299 1 5 0.157043478261 10.716573685523011 32.21050377297376 2.420073933858448 0 0 0
1302 1 6 -0.300956521739 10.335032795046464 28.57291161788919 0.4465170903513527 0 0 0
1306 1 6 -0.300956521739 8.003883981320097 30.88186015211389 1.5040578337326698 0 0 0
1307 1 6 -0.300956521739 7.99588345293962 32.33344320081236 3.147575199300309 0 0 0
1372 1 4 0.158343478261 10.413285856861574 31.3490396615031 4.828628666887819 0 0 0
1480 1 6 -0.300956521739 10.10123498334531 33.47371584678836 5.434431157604595 0 0 0
1110 1 7 0.736043478261 8.660318477042681 29.618592360707968 33.902887011064934 0 0 0
2213 3 10 0 20.04662617209245 31.3831919103863 3.954883593240668 0 -1 1
2214 3 9 0.1546 19.215301057693193 31.739335899928417 3.680867146869137 0 -1 1
2216 3 11 -0.6544 19.19739162535496 31.721738025307317 3.6410448422881343 0 -1 1
2267 16 8 0.4998 19.816569271140473 32.41456760158977 33.73494047704517 0 0 -1
2215 3 8 0.4998 19.28996092101737 33.16283342375991 3.7870778076052107 0 -1 1
105 1 1 0.433743478261 25.695481587195825 31.854796088723283 2.4861031737772805 0 0 0
111 1 2 -0.192556521739 23.763848313408218 30.84702037134569 2.5241139615290127 0 0 0
112 1 2 -0.192556521739 23.802350236364965 31.775194840897 3.5149239816654685 0 0 0