LAMMPS data file via write_data, version 22 Jul 2025, timestep = 10000, units = real

2368 atoms
14 atom types
2808 bonds
12 bond types
4728 angles
16 angle types
3840 dihedrals
12 dihedral types
1152 impropers
4 improper types

0.5489461652910919 33.475055909903844 xlo xhi
0.42102628392019525 33.602975791274886 ylo yhi
0.38323870133673665 33.64076337385882 zlo zhi

Masses

1 12.011
2 12.011
3 12.011
4 1.008
5 1.008
6 14.007
7 65.38
8 1.008
9 15.035
10 15.9994
11 0.0001
12 15.999
13 1.00784
14 0.0001

Pair Coeffs # lj/cut/coul/long

1 0.086 3.4
2 0.086 3.4
3 0.1094 3.4
4 0.015 2.511
5 0.0157 2.65
6 0.17 3.25
7 0.0125 1.96
8 0.2195 3.6499
9 0.1791 3.1655
10 0 1
11 0.2108 3.637
12 0.1848 3.165
13 0 1
14 0 1

Bond Coeffs # harmonic

1 346.543 1.49
2 488 1.335
3 540.249 1.35
4 367 1.08
5 440.221 1.37
6 340 1.09
7 78.5 2.011
8 0 0.945
9 0 1.43
10 0 0.037
11 0 0.105
12 0 0.9572

Angle Coeffs # harmonic

1 48.088 109.32
2 71.254 105.27
3 48.68 128.33
4 49.451 125.67
5 76.75 108.65
6 32.477 126.4
7 66.015 123.92
8 49.954 125.68
9 35 109.5
10 75.484 112.16
11 35.24 109.48
12 0 108.5
13 0 127.53
14 0 123.97
15 0 52.26
16 0 104.52

Dihedral Coeffs # charmm

1 2.325 2 180 0
2 2.325 2 180 0
3 2.325 2 180 0
4 2.325 2 180 0
5 5 2 180 0
6 5 2 180 0
7 5 2 180 0
8 5 2 180 0
9 5.15 2 180 0
10 5.15 2 180 0
11 5.15 2 180 0
12 0 0 0 0

Improper Coeffs # harmonic

1 2 180
2 2 180
3 2 180
4 0 0

Atoms # full

1659 1 7 0.736043478261 12.573730561984462 8.51653836145266 0.5284802680548772 0 0 1
1048 1 2 -0.192556521739 2.154947927208002 6.063495100585959 5.451036534471484 0 0 0
1943 1 7 0.736043478261 12.631249823408414 16.951185317145022 9.054031173200318 0 0 0
2217 4 10 0 12.082296018769242 1.1200478435139798 1.1654273348278965 0 0 1
946 1 7 0.736043478261 0.6720216591525712 4.211320069954548 8.871353122388788 0 0 0
1924 1 6 -0.300956521739 6.844671622936422 5.368994688425058 1.0263523760949336 0 0 0
1575 1 1 0.433743478261 8.61677018568504 2.068297099760217 2.439205422032664 0 0 0
1576 1 2 -0.192556521739 10.406278168997673 3.317099091490098 2.4964316464112413 0 0 0
1577 1 2 -0.192556521739 10.530661554858522 2.380034276108193 3.4517425414503804 0 0 0
1580 1 3 -0.602556521739 7.249752383119402 1.6277168569138274 2.098624463524171 0 0 0
1581 1 5 0.157043478261 6.865677124375581 0.9498757107786876 2.832487958052238 0 0 0
1582 1 5 0.157043478261 7.251667781120289 1.0079783799829625 1.1552953516272408 0 0 0
1583 1 5 0.157043478261 6.592075751399463 2.519763612275423 2.0266082909828262 0 0 0
1584 1 6 -0.300956521739 9.167649128469277 3.2158640795441604 1.9754647684901274 0 0 0
1585 1 6 -0.300956521739 9.408650632603036 1.5734669399829657 3.3964186705812303 0 0 0
1610 1 4 0.158343478261 7.176240412469068 2.95873693914186 5.295476864535937 0 0 0
1646 1 6 -0.300956521739 7.224167091804871 0.822728019628708 5.637966255483277 0 0 0
1876 1 2 -0.192556521739 6.1473812506804615 5.165699158540565 2.182851958145678 0 0 0
1888 1 4 0.158343478261 6.303168763267117 4.469270323377345 2.9684077816791405 0 0 0
1578 1 4 0.158343478261 11.11735956662075 4.080301406758668 2.245948527809173 0 0 0
1598 1 2 -0.192556521739 6.773035307148184 2.0603778639358192 5.779411994857757 0 0 0
1579 1 4 0.158343478261 11.428227194864448 2.1585991796719775 4.010926310998515 0 0 0
2211 2 8 0.4998 15.775201382336279 4.244373636108484 1.9042839757115715 0 0 0
2214 3 9 0.1546 10.370395552088628 5.433080398582808 5.6439957064955415 0 0 0
2216 3 11 -0.6544 10.400523503277412 5.41753675042819 5.676659534704239 0 0 0
2213 3 10 0 9.835829188125963 4.775368563854798 5.2260730326964255 0 0 0
1889 1 4 0.158343478261 14.599556720819214 6.1315647129123985 4.563901232982849 0 0 0
1896 1 4 0.158343478261 12.586956990754107 6.296710732818908 2.5920386404495024 0 0 0
2212 2 11 -0.6544 16.831257232042244 3.5726678409989234 2.6392447205220626 0 0 0
1619 1 4 0.158343478261 15.475189729680627 3.2754912365836444 5.882881464905673 0 0 0
1660 1 7 0.736043478261 4.352091695159413 8.500243931168376 0.49220242375384676 0 0 1
2210 2 9 0.1546 16.837991011110486 3.6172223586896797 2.6256160304802 0 0 0
1021 1 1 0.433743478261 2.5088152189253967 8.143806615449565 2.657737972721596 0 0 0
1022 1 2 -0.192556521739 2.4337508852628904 10.079984641730574 3.635700476069451 0 0 0
1023 1 2 -0.192556521739 3.2630665761067963 10.236568078735287 2.582671501169116 0 0 0
1024 1 4 0.158343478261 1.7434195796761793 10.847820363856714 3.9013422271391 0 0 0
1025 1 4 0.158343478261 3.096829259408253 11.036651317133924 1.9693148920097465 0 0 0
1026 1 3 -0.602556521739 1.6675819363578412 7.010143092630113 2.1397928049796517 0 0 0
1027 1 5 0.157043478261 0.9954194786760029 6.570006051806393 2.8895302293267786 0 0 0
1028 1 5 0.157043478261 2.330501629979988 6.192992139010162 1.867615982599403 0 0 0
1030 1 6 -0.300956521739 2.0296441663026674 8.79285392574746 3.7094805831498507 0 0 0
1031 1 6 -0.300956521739 3.0475965895471293 9.082715859178053 1.8659451237659006 0 0 0
1874 1 2 -0.192556521739 5.2408511977880154 6.148886077073349 2.35738504709499 0 0 0
1886 1 4 0.158343478261 4.4100168901888495 6.295585726406114 3.065237648413739 0 0 0
1922 1 6 -0.300956521739 5.451959100907087 6.886074832315447 1.2077672743786547 0 0 0
1029 1 5 0.157043478261 1.1098843315700815 7.272988523136615 1.1878229817528472 0 0 0
1060 1 4 0.158343478261 2.999521847570093 6.616197523610341 5.038422058022766 0 0 0
1915 1 5 0.157043478261 6.113389261272254 9.940000362955564 2.6661234155477156 0 0 0
1906 1 5 0.157043478261 7.304565002151994 8.817175266749615 1.9722008457180207 0 0 0
1897 1 3 -0.602556521739 10.00069171826043 6.730350576121658 2.026397524601501 0 0 0
1898 1 3 -0.602556521739 6.895257109594676 9.822845483371307 1.9390263635513714 0 0 0
1903 1 5 0.157043478261 7.793837856312074 10.313993753016167 2.384557582985911 0 0 0
1904 1 5 0.157043478261 10.374134074563434 7.540250434581159 2.6478588111158343 0 0 0
1905 1 5 0.157043478261 10.054080122525404 5.879156414363744 2.5827674137938317 0 0 0
1916 1 5 0.157043478261 8.98414884306963 6.888250344660842 2.2650064895796396 0 0 0
1675 1 1 0.433743478261 6.5030187876677275 10.34854794595295 0.5719999876356169 0 0 1
1921 1 6 -0.300956521739 11.426314292806593 10.025597801245535 1.2114075566840055 0 0 0
1873 1 2 -0.192556521739 11.511525888981307 10.707204816280548 2.432760996989217 0 0 0
1869 1 1 0.433743478261 14.589565020516003 8.858462592724104 2.7448627388646116 0 0 0
1877 1 2 -0.192556521739 14.350432133064983 6.895826756780888 3.8382419717430865 0 0 0
1884 1 2 -0.192556521739 13.405184517401342 6.9712866755341505 2.8680448366464124 0 0 0
1885 1 4 0.158343478261 12.264137099675162 10.415476138180573 3.1505811364044765 0 0 0
1899 1 3 -0.602556521739 15.295691558145966 10.062639510317634 2.2719126142402812 0 0 0
1913 1 5 0.157043478261 15.68329471741096 10.67281277207379 3.020503617661285 0 0 0
1917 1 5 0.157043478261 14.605659475036791 10.670469501892297 1.7027175349136119 0 0 0
1925 1 6 -0.300956521739 15.116458913336134 8.018415953603137 3.7142373237737565 0 0 0
1932 1 6 -0.300956521739 13.511859481592994 8.178258283752152 2.219345836441587 0 0 0
1983 1 2 -0.192556521739 14.962728107910666 10.631834278225003 5.97936892222909 0 0 0
2031 1 4 0.158343478261 14.102474711600713 10.443416089978577 5.353530377382806 0 0 0
2175 1 6 -0.300956521739 16.193284101488793 10.057605951083987 5.972701620047894 0 0 0
1907 1 5 0.157043478261 16.20013520329046 10.05009935751431 1.6253159586516113 0 0 0
1934 1 7 0.736043478261 8.738820489253966 16.798310682903324 4.903561546732944 0 0 0
2102 1 5 0.157043478261 14.322360368630502 6.116435048432899 6.683097001579793 0 0 0
1940 1 7 0.736043478261 16.7546243849883 8.550420903558425 4.7890141507429185 0 0 0
1875 1 2 -0.192556521739 10.53383521484303 11.608255139738143 2.394996474116068 0 0 0
1923 1 6 -0.300956521739 9.838174966301041 11.43957290615964 1.2537669886415899 0 0 0
1872 1 1 0.433743478261 8.72769337482974 14.673586029276802 2.6554629077790746 0 0 0
1880 1 2 -0.192556521739 6.738299125478189 13.680542560399221 2.8520466878398425 0 0 0
1881 1 2 -0.192556521739 6.888869163861274 14.592768816776374 3.8241168488295423 0 0 0
1887 1 4 0.158343478261 10.202698062186583 12.228638229277374 3.264136224757213 0 0 0
1892 1 4 0.158343478261 5.917575127075011 12.993167496720929 2.728323402954666 0 0 0
1893 1 4 0.158343478261 6.291647864598994 14.859672530945858 4.653388229639383 0 0 0
1902 1 3 -0.602556521739 9.992331793861794 15.168063276189185 2.118450486056555 0 0 0
1909 1 5 0.157043478261 10.147916577706338 16.179625523492465 2.0060309893465673 0 0 0
1911 1 5 0.157043478261 10.326025083227464 14.760358884885376 1.1638988114824782 0 0 0
1919 1 5 0.157043478261 10.96957156061864 14.938835846009727 2.5344447285245857 0 0 0
1928 1 6 -0.300956521739 7.923142220027039 13.755339379423484 2.2066181207899014 0 0 0
1929 1 6 -0.300956521739 8.086765717815869 15.225467168287572 3.710316369377502 0 0 0
1971 1 2 -0.192556521739 10.727907377235026 14.874383589757944 6.083822567048612 0 0 0
2019 1 4 0.158343478261 10.585149988725997 14.025934921483705 5.424366981994398 0 0 0
1665 1 7 0.736043478261 8.490653773854968 12.522920754478683 0.5736968602434097 0 0 1
1046 1 2 -0.192556521739 2.3558047006349847 5.454673742718083 6.641647290806736 0 0 0
1058 1 4 0.158343478261 3.236669755589178 4.848411890319309 6.845719569629504 0 0 0
948 1 1 0.433743478261 2.6909192205888943 2.159225393439244 8.456417635378946 0 0 0
949 1 2 -0.192556521739 3.7150963353221345 2.0225203627370547 10.439364529422146 0 0 0
950 1 2 -0.192556521739 2.748607353068095 2.9360051169830275 10.517479024252715 0 0 0
953 1 3 -0.602556521739 2.1931818946885375 1.7660747527913787 7.136800205492544 0 0 0
954 1 5 0.157043478261 1.539214790353216 0.9372994696513455 7.213388899841487 0 0 0
955 1 5 0.157043478261 3.062709998110292 1.450602109449023 6.5760963633364815 0 0 0
956 1 5 0.157043478261 1.5671855118172238 2.610138194048788 6.750241488332835 0 0 0
957 1 6 -0.300956521739 3.703756469740733 1.5950341992324142 9.155893812241306 0 0 0
958 1 6 -0.300956521739 2.1413649481688393 3.05791514185411 9.268497970874149 0 0 0
2048 1 4 0.158343478261 13.134359269601543 15.215756614996081 11.726118557146672 0 0 0
1612 1 4 0.158343478261 5.338166637696088 2.9239906215165696 7.052077693759531 0 0 0
1600 1 2 -0.192556521739 5.823397881309797 2.077699154573571 6.734609460375155 0 0 0
1648 1 6 -0.300956521739 5.770898919665979 0.7792604528727713 7.256008115165033 0 0 0
951 1 4 0.158343478261 4.358174053905298 1.6337061382651001 11.228100024697392 0 0 0
952 1 4 0.158343478261 2.482261902964855 3.452755298391927 11.457848718674288 0 0 0
1630 1 5 0.157043478261 11.037961671969956 1.8468165037320587 7.8791654350605 0 0 0
1621 1 3 -0.602556521739 7.619997401359566 1.628093590231404 10.452025154024533 0 0 0
1622 1 3 -0.602556521739 10.47292592951702 1.5480432948896121 7.013708122896557 0 0 0
1628 1 5 0.157043478261 6.970309282504326 2.1562001570420026 9.8103774974418 0 0 0
1639 1 5 0.157043478261 9.400364065886459 1.581882503435359 7.185278975702738 0 0 0
1629 1 5 0.157043478261 8.595546016555044 1.5323120508688468 9.97260173353844 0 0 0
2215 3 8 0.4998 9.5213272856977 6.523569738995233 6.008771662337356 0 0 0
1637 1 5 0.157043478261 14.270832940834335 2.1325179142032176 10.821165445710015 0 0 0
1627 1 5 0.157043478261 10.743389184822792 2.218490488166773 6.2064144177262826 0 0 0
1614 1 4 0.158343478261 13.693218430309662 1.5102168869072616 5.860756757858066 0 0 0
1594 1 1 0.433743478261 14.948337272145475 2.0391917472979397 8.825454357698149 0 0 0
1599 1 2 -0.192556521739 11.80494353189553 2.1664524108926235 10.77850578640477 0 0 0
1602 1 2 -0.192556521739 14.240099723490799 1.7871931272225665 6.7096101156572026 0 0 0
1607 1 2 -0.192556521739 15.134256909118614 2.804790852063028 6.7480481657381866 0 0 0
1611 1 4 0.158343478261 12.226199571743436 3.08185808655885 10.466956936347204 0 0 0
1624 1 3 -0.602556521739 15.148574803162933 1.8397203867758198 10.251169354631957 0 0 0
1631 1 5 0.157043478261 15.40284958777818 0.80207839877887 10.439105589377084 0 0 0
1641 1 5 0.157043478261 16.01946739183318 2.451678228913731 10.594122328900715 0 0 0
1647 1 6 -0.300956521739 11.810644457132021 0.9248809296252872 10.186699895544931 0 0 0
1650 1 6 -0.300956521739 14.114512008420943 1.4007925637379213 8.021409469163213 0 0 0
1655 1 6 -0.300956521739 15.528246621477438 2.9403936756500397 8.054435286701201 0 0 0
1979 1 2 -0.192556521739 15.002694900201805 5.422491158865155 10.916060648026457 0 0 0
2027 1 4 0.158343478261 14.178583415774241 4.798810793771316 10.579447963699469 0 0 0
2171 1 6 -0.300956521739 16.22033959991652 5.452802922847811 10.310118905133905 0 0 0
2098 1 5 0.157043478261 15.047856907844334 6.313663389128729 8.183673591505185 0 0 0
1077 1 5 0.157043478261 1.5841655627124884 9.179052822824515 8.164414786036797 0 0 0
1076 1 5 0.157043478261 2.1733415739470034 9.164734082084538 6.446035962569951 0 0 0
1069 1 3 -0.602556521739 1.7444032952025041 9.732423132150497 7.280784797378034 0 0 0
1070 1 3 -0.602556521739 1.9266254291332625 6.329278979164183 10.473871702283578 0 0 0
1078 1 5 0.157043478261 1.8718973516375916 6.585197422529528 9.404208739520598 0 0 0
1087 1 5 0.157043478261 2.633533674318669 5.53031867233226 10.655928383619196 0 0 0
1088 1 5 0.157043478261 2.4772177143755574 10.52566434129805 7.53748714528175 0 0 0
1093 1 6 -0.300956521739 1.2449350208724153 11.237643759556814 10.476984419360384 0 0 0
1045 1 2 -0.192556521739 2.467838769882904 10.731421779329219 10.330446578753623 0 0 0
1075 1 5 0.157043478261 2.2892403107794017 7.208445070469837 10.966680012758333 0 0 0
2004 1 2 -0.192556521739 10.384366123580392 13.824181873604607 14.797732820595325 0 0 0
2146 1 5 0.157043478261 14.841885557032336 7.721315572781656 7.1751104759946305 0 0 0
2074 1 3 -0.602556521739 15.493154700091102 10.106250312660986 10.336644469647778 0 0 0
2076 1 3 -0.602556521739 15.083056347845902 6.673997438536559 7.182191403857712 0 0 0
2104 1 5 0.157043478261 14.98192199095906 10.954784931352735 9.891572890686541 0 0 0
2148 1 5 0.157043478261 14.94619567902688 9.63406838680961 11.1454594292611 0 0 0
2100 1 5 0.157043478261 15.586772724987087 9.354381991980063 9.545778131343418 0 0 0
1956 1 1 0.433743478261 16.541581973692992 6.516397298534987 6.86430401033707 0 0 0
1954 1 1 0.433743478261 16.852840386179174 10.515742596957026 10.849722200993973 0 0 0
1939 1 7 0.736043478261 16.78283584257655 8.543403448434516 13.045504689865275 0 0 0
2169 1 6 -0.300956521739 16.20086809692691 11.569887224595835 7.463801384383148 0 0 0
2173 1 6 -0.300956521739 16.21630423289999 7.008794707421583 11.889073564651577 0 0 0
1066 1 4 0.158343478261 1.6765469510132036 13.514880618680046 6.256497777727016 0 0 0
1036 1 7 0.736043478261 4.468549803275813 16.655499176428805 8.889777324789105 0 0 0
1043 1 1 0.433743478261 2.7779273825632673 14.241714235190084 9.051972607149711 0 0 0
1051 1 2 -0.192556521739 3.1367541197323243 14.667465047965477 6.9665106698324015 0 0 0
1054 1 2 -0.192556521739 2.51156078523606 13.482763523469817 6.966353120400118 0 0 0
1057 1 4 0.158343478261 3.1654530368145584 11.5519355566861 10.400420208720535 0 0 0
1063 1 4 0.158343478261 3.8343373319619967 14.868187802159143 6.193799774667421 0 0 0
1073 1 3 -0.602556521739 1.997257000208868 15.000858660608351 10.034556891033345 0 0 0
1081 1 5 0.157043478261 1.4405487828509713 14.31629999066146 10.730789042887022 0 0 0
1083 1 5 0.157043478261 1.2810438322120477 15.584446194783133 9.50424959879251 0 0 0
1091 1 5 0.157043478261 2.6583072127586833 15.63896782314496 10.531163963886044 0 0 0
1099 1 6 -0.300956521739 3.5540518606019 14.899090883828435 8.227538160799687 0 0 0
1102 1 6 -0.300956521739 2.094443377241399 13.412334062874345 8.226355194265398 0 0 0
2039 1 4 0.158343478261 5.146823329636575 13.938513787504201 10.403033839160475 0 0 0
2183 1 6 -0.300956521739 5.7167231766511515 16.078209057041775 10.301557247505807 0 0 0
1991 1 2 -0.192556521739 5.74872604914294 14.77600704209144 10.699089784922027 0 0 0
2163 1 6 -0.300956521739 10.145596860078415 16.13765954572399 6.051948783555996 0 0 0
2219 4 8 0.4998 13.953443983586574 0.6798661727507722 0.8956738915702449 0 0 1
2110 1 5 0.157043478261 6.4548155135141565 14.561484235264 7.266895604947844 0 0 0
2066 1 3 -0.602556521739 10.164320613765145 15.459997169051766 10.644232415229663 0 0 0
2068 1 3 -0.602556521739 7.162739055356609 15.411206333972759 7.369407626666931 0 0 0
2090 1 5 0.157043478261 7.922967428845561 15.057807508885325 6.714596665635526 0 0 0
2092 1 5 0.157043478261 9.447357222041065 15.521505617794542 9.772355620107875 0 0 0
2112 1 5 0.157043478261 9.526533352673258 15.063332265847897 11.411955171583427 0 0 0
2138 1 5 0.157043478261 7.525665117907625 15.47754669814065 8.427236317246185 0 0 0
2140 1 5 0.157043478261 10.958835048843381 14.729945099390378 10.507169092349544 0 0 0
1948 1 1 0.433743478261 6.532233899871862 16.644705044675504 6.862798904211811 0 0 0
1953 1 1 0.433743478261 16.934322290255125 10.646466427422455 6.937395400555752 0 0 0
1034 1 7 0.736043478261 0.584584172661334 8.09972870183572 12.968201767905857 0 0 0
1989 1 2 -0.192556521739 11.666977347728544 14.90791361274126 7.069341891904493 0 0 0
2181 1 6 -0.300956521739 11.599345717994831 16.201279492690404 7.615688822228686 0 0 0
1964 1 1 0.433743478261 14.713244309009804 14.821781944468153 8.853834174814864 0 0 0
1977 1 2 -0.192556521739 14.945659378205027 11.592776764028821 6.94730023470352 0 0 0
2000 1 2 -0.192556521739 13.766261955666394 14.921093371028821 10.868245940562987 0 0 0
2012 1 2 -0.192556521739 14.666422594109372 13.91424956080163 10.81413770932288 0 0 0
2025 1 4 0.158343478261 14.061197876460454 12.204001145954313 7.139582884863545 0 0 0
2037 1 4 0.158343478261 12.300821068882064 14.108813568334789 7.436644417114439 0 0 0
2060 1 4 0.158343478261 14.932380447641819 13.302597807989468 11.687665807165603 0 0 0
2084 1 3 -0.602556521739 15.054073917863136 15.20429592781365 7.445776709367456 0 0 0
2118 1 5 0.157043478261 15.137978784900856 14.359959782446097 6.775879797971686 0 0 0
2130 1 5 0.157043478261 15.89313430142118 15.857670509852303 7.485983968987082 0 0 0
2154 1 5 0.157043478261 14.273191375752763 15.78581719891945 6.988096828611253 0 0 0
2192 1 6 -0.300956521739 13.790419955963767 15.443588388602205 9.630363617753686 0 0 0
2204 1 6 -0.300956521739 15.308995720173062 13.85880673056234 9.574072642568543 0 0 0
1062 1 4 0.158343478261 1.7145006958289863 5.809632606814803 14.308007895539808 0 0 0
1067 1 4 0.158343478261 2.5214513038937088 5.826921905231534 16.18827415967818 0 0 0
1615 1 4 0.158343478261 5.997963478956383 3.5985005521567666 15.182964768984391 0 0 0
1640 1 5 0.157043478261 7.768124815431028 2.136558849581788 11.434459615677897 0 0 0
1633 1 5 0.157043478261 10.806491518659831 2.894783855915103 15.35227299349457 0 0 0
1618 1 4 0.158343478261 6.160832087565031 1.4793479414407078 13.359576935253497 0 0 0
1595 1 1 0.433743478261 8.878366236978728 2.156506162200543 14.969376762021634 0 0 0
1603 1 2 -0.192556521739 6.808211825249895 2.9072319235007247 14.963398246249376 0 0 0
1606 1 2 -0.192556521739 6.877859209971732 1.9159026204463965 14.037390064858974 0 0 0
1609 1 4 0.158343478261 10.656701593137715 2.892822708841785 12.398739704621807 0 0 0
1625 1 3 -0.602556521739 10.31645625600225 1.9411285034836272 15.316847552886447 0 0 0
1635 1 5 0.157043478261 10.75048641063544 1.2965258206936183 14.529048650662398 0 0 0
1643 1 5 0.157043478261 10.390512602517699 1.5461298010258933 16.338591054917337 0 0 0
1645 1 6 -0.300956521739 10.401338948908913 0.8131252064590286 11.823529183791623 0 0 0
1651 1 6 -0.300956521739 8.084513952468194 3.063137567748795 15.510818267419316 0 0 0
1654 1 6 -0.300956521739 8.195286328291024 1.4252306907284633 14.120828117314787 0 0 0
1987 1 2 -0.192556521739 10.549428534968229 5.698598044199843 15.081155435572503 0 0 0
2035 1 4 0.158343478261 10.280909255729462 5.147204293823646 14.201469493231077 0 0 0
2179 1 6 -0.300956521739 10.03367741141317 5.615883336316411 16.346537920280387 0 0 0
1597 1 2 -0.192556521739 10.907695920335772 2.0821588078276605 11.752428126693344 0 0 0
2142 1 5 0.157043478261 6.575849318594722 7.583470719141588 15.241823057425965 0 0 0
1047 1 2 -0.192556521739 2.532820985754663 9.74561479289059 11.222642882193982 0 0 0
1059 1 4 0.158343478261 3.28023235085035 10.030697916707744 11.985701361948434 0 0 0
1095 1 6 -0.300956521739 1.2601647478579177 9.602440262941286 11.680559249552353 0 0 0
1042 1 1 0.433743478261 2.6877418551997576 8.527646927219516 14.943676932898088 0 0 0
1050 1 2 -0.192556521739 2.604045523474343 6.445092105325236 14.32673311675043 0 0 0
1055 1 2 -0.192556521739 3.1031964491378274 6.49820713513001 15.590364432490826 0 0 0
1072 1 3 -0.602556521739 2.0475800156778394 9.824330821775936 15.27861378214951 0 0 0
1079 1 5 0.157043478261 2.0222411567240743 10.465027483354172 14.441292447107859 0 0 0
1085 1 5 0.157043478261 2.634478443858266 10.356382424496891 16.108112871084536 0 0 0
1089 1 5 0.157043478261 1.0381353644231177 9.652955732306294 15.60831584772812 0 0 0
1098 1 6 -0.300956521739 2.3760527310101245 7.702224994358611 13.942618207517812 0 0 0
1103 1 6 -0.300956521739 2.868500189428876 7.78796642299885 16.010717375388204 0 0 0
2023 1 4 0.158343478261 4.71142576592696 10.374038336731688 14.471261633310501 0 0 0
1975 1 2 -0.192556521739 5.4436634550080685 10.657879454089814 15.246993948822144 0 0 0
2167 1 6 -0.300956521739 5.572824467862776 10.009821033047663 16.427293325141026 0 0 0
2106 1 5 0.157043478261 7.817334055188315 6.364004994868743 15.10518219936114 0 0 0
1946 1 1 0.433743478261 10.58452080225988 16.776405751785727 11.058679022783945 0 0 0
2094 1 5 0.157043478261 6.101767123376554 6.05638633800466 14.670176252840553 0 0 0
2070 1 3 -0.602556521739 10.478257223975492 10.352546186709151 15.48217986380385 0 0 0
2072 1 3 -0.602556521739 6.7806490505364305 6.544466310606149 15.35105134223476 0 0 0
2096 1 5 0.157043478261 10.16080049401852 9.289848243824373 15.43907074529432 0 0 0
2108 1 5 0.157043478261 11.307124918826638 10.50783765183434 14.75564001429919 0 0 0
2144 1 5 0.157043478261 9.597511572265399 10.895413417716705 15.087635200014134 0 0 0
1094 1 6 -0.300956521739 1.2022323690574042 5.406174333923036 7.311645379341116 0 0 0
2165 1 6 -0.300956521739 11.488917306337138 7.161195208336597 16.367911227228007 0 0 0
1973 1 2 -0.192556521739 11.418663687683381 6.733461499390764 15.05225420636429 0 0 0
1955 1 1 0.433743478261 16.917643987501812 6.423880765006351 10.917347872597652 0 0 0
2218 4 9 0.1546 12.907665102194946 1.4782284189338932 1.4543481518085863 0 0 1
1981 1 2 -0.192556521739 14.978216690843167 6.444114368297124 11.792626104956868 0 0 0
2044 1 4 0.158343478261 14.911150882763348 11.319310809257793 13.677150245182492 0 0 0
2064 1 4 0.158343478261 13.249135635253152 11.249801777128786 15.646487324040395 0 0 0
1960 1 1 0.433743478261 14.621384478642435 8.365675559672367 14.985505209164224 0 0 0
1996 1 2 -0.192556521739 14.690807528284044 10.41882021132925 14.254016112050893 0 0 0
2016 1 2 -0.192556521739 13.834303053205478 10.40451001149458 15.293008564611375 0 0 0
2021 1 4 0.158343478261 11.97033373976973 7.078116681159775 14.166672194066047 0 0 0
2029 1 4 0.158343478261 14.089486928001907 6.680424465974129 12.38119594824297 0 0 0
2080 1 3 -0.602556521739 15.020400160657337 6.920261592482331 15.180004479525739 0 0 0
2114 1 5 0.157043478261 14.208479375668173 6.262200660195714 14.8838760478689 0 0 0
2134 1 5 0.157043478261 15.308352007401997 6.685634915934034 16.17173871801324 0 0 0
2150 1 5 0.157043478261 15.921572977654328 6.680484112504093 14.593967741279739 0 0 0
2188 1 6 -0.300956521739 15.207371902354339 9.142613754258196 14.11366062513645 0 0 0
2208 1 6 -0.300956521739 13.810641599986408 9.1234065623022 15.712988807000897 0 0 0
2223 5 8 0.4998 3.6640216130874763 14.675147175544835 13.28867884801227 0 0 0
2224 5 11 -0.6544 3.0204968418220033 13.4228937417511 12.936073457556779 0 0 0
2222 5 9 0.1546 3.0031408915284934 13.447924722344684 12.971968475715158 0 0 0
2221 5 10 0 2.8646631305310724 12.975527775865663 13.778620607901164 0 0 0
2220 4 11 -0.6544 12.9122435979063 1.5249576756324956 1.4509426463247523 0 0 1
2017 1 4 0.158343478261 7.155662051433276 14.013386926227222 12.208701484796467 0 0 0
2052 1 4 0.158343478261 11.184940191901534 13.133220571057379 15.004775200112316 0 0 0
1968 1 1 0.433743478261 8.3274384986257 14.781931873372246 14.983234516417934 0 0 0
2033 1 4 0.158343478261 6.492706610902355 12.334099725027897 14.386724822054964 0 0 0
2056 1 4 0.158343478261 11.117631831657238 15.057975292792873 13.189654324900003 0 0 0
2122 1 5 0.157043478261 6.203508449538944 14.244139788785363 15.438388577370006 0 0 0
1985 1 2 -0.192556521739 6.318797109161223 11.670752648010831 15.209569588556342 0 0 0
2200 1 6 -0.300956521739 9.060999887572098 15.331380430187576 14.009610702249411 0 0 0
2126 1 5 0.157043478261 6.5689542767699125 15.857202046950153 14.819707210015682 0 0 0
1969 1 2 -0.192556521739 6.685521458958441 14.841164586364421 11.659925501800112 0 0 0
2088 1 3 -0.602556521739 6.953606028006629 15.036512619761035 15.414277931947794 0 0 0
2161 1 6 -0.300956521739 7.12780391925787 16.157465881462606 11.777207715481142 0 0 0
2158 1 5 0.157043478261 7.111957708233507 15.361014758280797 16.417883372247164 0 0 0
2177 1 6 -0.300956521739 7.094248220503182 11.528327532349053 16.305038408278183 0 0 0
2008 1 2 -0.192556521739 10.3139481709958 14.81865737800074 13.880646884721378 0 0 0
2196 1 6 -0.300956521739 9.137563464528473 13.813020176558249 15.46739770785921 0 0 0
1096 1 6 -0.300956521739 0.9746843689941018 6.782481584422573 5.66322852985314 0 0 0
1937 1 7 0.736043478261 16.867500902754973 12.747441532056168 8.944103490380765 0 0 0
1039 1 1 0.433743478261 0.5849187837417548 5.989227934886449 11.022748208428483 0 0 0
1673 1 1 0.433743478261 10.434982125737195 6.533049407236551 0.6034297643714001 0 0 1
1666 1 7 0.736043478261 8.397507855063953 4.36219535059038 0.5434821100393514 0 0 1
1588 1 7 0.736043478261 16.790380703959027 4.224744063321985 8.778396032955376 0 0 0
1941 1 7 0.736043478261 8.652865613870736 12.753161246962035 16.97082067931172 0 0 0
1674 1 1 0.433743478261 10.335535703676463 10.455250119067548 0.49145945069344826 0 0 1
1933 1 7 0.736043478261 8.516490899851373 16.890483611003546 12.979751337528969 0 0 0
1950 1 1 0.433743478261 10.6934924141712 10.699719671476135 16.889967017547686 0 0 0
1945 1 1 0.433743478261 6.551758038669018 16.969509132424708 10.8752623659719 0 0 0
1947 1 1 0.433743478261 10.773330672413165 16.943145441057965 6.9046299123122195 0 0 0
2227 6 8 0.4998 1.8562050317191372 0.4506425782115997 3.9075492945735886 0 0 1
1942 1 7 0.736043478261 8.67170743366206 4.272583035557059 16.918070331511274 0 0 0
1952 1 1 0.433743478261 6.48924701285271 6.376399416017177 16.756664188239807 0 0 0
1536 1 4 0.158343478261 6.828362666494159 3.1569883437526824 21.908198771502427 0 0 0
1566 1 6 -0.300956521739 7.382642819090368 1.1626782889227067 22.405510947553793 0 0 0
1596 1 1 0.433743478261 8.72083364309956 2.154549250743541 19.068776797568937 0 0 0
1604 1 2 -0.192556521739 10.665602116133211 3.0449009860567315 18.7675526709382 0 0 0
1605 1 2 -0.192556521739 10.762595619150574 2.1800563954135432 19.797201216153294 0 0 0
1626 1 3 -0.602556521739 7.255010110078527 1.9149429046623898 19.04276182367992 0 0 0
1634 1 5 0.157043478261 6.725439886534584 2.879248806065188 19.07216903151327 0 0 0
1636 1 5 0.157043478261 6.973222025304955 1.239111018798716 19.854537163314635 0 0 0
1644 1 5 0.157043478261 7.076957667458196 1.4785894472627255 18.062932687735216 0 0 0
1652 1 6 -0.300956521739 9.381634708244736 3.0825344510684856 18.3679869991708 0 0 0
1653 1 6 -0.300956521739 9.513440600539289 1.610674184456429 19.95404441674784 0 0 0
2036 1 4 0.158343478261 7.004319990795628 4.844493851772517 19.624676732088993 0 0 0
2180 1 6 -0.300956521739 7.158699878546813 5.507031385419198 17.505151486960877 0 0 0
1988 1 2 -0.192556521739 6.675696344480677 5.494958284240078 18.797498881778594 0 0 0
1616 1 4 0.158343478261 11.46000729144958 3.707886514730563 18.4434906912205 0 0 0
1617 1 4 0.158343478261 11.692131506090625 1.905731426561155 20.361001104216214 0 0 0
1658 1 7 0.736043478261 8.487789714251594 16.896081498655647 21.1705401196444 0 0 0
1543 1 4 0.158343478261 15.445992524058148 3.873339360661344 22.937891759089787 0 0 0
2063 1 4 0.158343478261 13.181164769810165 5.80082718056417 19.2031847400044 0 0 0
2293 23 12 0 4.863350417346415 9.476681353844917 22.04789315891352 0 0 0
2295 23 13 0.527 4.4210059847495025 9.606145755324611 21.160441993664623 0 0 0
2294 23 14 -1.054 4.889192599830017 9.545125678725098 21.972577557046012 0 0 0
974 1 2 -0.192556521739 2.213407975907195 6.221100593859784 22.394958893937783 0 0 0
984 1 4 0.158343478261 3.1104553273004267 6.8410759612343455 22.408206164974317 0 0 0
1014 1 6 -0.300956521739 1.0074141692969918 6.8849149997153285 22.442710495246526 0 0 0
1041 1 1 0.433743478261 2.753696923366024 8.238587474775034 19.716028479255787 0 0 0
1049 1 2 -0.192556521739 2.293156501400451 10.397392600838693 20.145021190534926 0 0 0
1056 1 2 -0.192556521739 3.2794647786142472 10.377053444985545 19.242602057939582 0 0 0
1061 1 4 0.158343478261 1.4628718021073481 11.108275024758298 20.0437162180913 0 0 0
1068 1 4 0.158343478261 3.2156031179958675 11.092423779408078 18.410106064580862 0 0 0
1071 1 3 -0.602556521739 2.1506176845988065 7.026963180754834 19.078799100283277 0 0 0
1080 1 5 0.157043478261 1.4579062408539534 7.354045874578953 18.274791014577442 0 0 0
1086 1 5 0.157043478261 1.6268889559586912 6.440627683741906 19.807173566116106 0 0 0
1090 1 5 0.157043478261 2.963637077497015 6.38129524762216 18.579630954362266 0 0 0
1097 1 6 -0.300956521739 1.8907309055709172 9.05441694153368 20.373995593493294 0 0 0
1104 1 6 -0.300956521739 3.6321025062136267 9.023562756894451 19.050874204345288 0 0 0
2024 1 4 0.158343478261 5.174436227735814 6.716842248297094 19.709305727475257 0 0 0