LAMMPS data file via write_data, version 22 Jul 2025, timestep = 500, units = real

4036 atoms
14 atom types
3904 bonds
12 bond types
6164 angles
16 angle types
7518 dihedrals
15 dihedral types
2112 impropers
7 improper types

-0.16593109371090975 34.1899331689062 xlo xhi
-0.1801294451039439 34.20413152029923 ylo yhi
-0.1931666652273485 34.21716874042259 zlo zhi

Masses

1 12.011
2 12.011
3 12.011
4 1.008
5 1.008
6 14.007
7 65.38
8 1.008
9 1.008
10 12.011
11 15.9994
12 15.999
13 1.00784
14 0.0001

Pair Coeffs # lj/cut/coul/long

1 0.086 3.4
2 0.086 3.4
3 0.1094 3.4
4 0.015 2.511
5 0.0157 2.65
6 0.17 3.25
7 0.0125 1.96
8 0 1
9 0.03 2.5
10 0.066 3.5
11 0.17 3.12
12 0.1848 3.165
13 0 1
14 0 1

Bond Coeffs # harmonic

1 346.543 1.49
2 488 1.335
3 540.249 1.35
4 367 1.08
5 440.221 1.37
6 340 1.09
7 78.5 2.011
8 340 1.09
9 320 1.41
10 553 0.945
11 0 0.9572
12 0 0.105

Angle Coeffs # harmonic

1 48.088 109.32
2 71.254 105.27
3 48.68 128.33
4 49.451 125.67
5 76.75 108.65
6 32.477 126.4
7 66.015 123.92
8 49.954 125.68
9 35 109.5
10 75.484 112.16
11 35.24 109.48
12 55 108.6
13 35 109.5
14 33 107.8
15 0 104.52
16 0 52.26

Improper Coeffs # harmonic

1 0 0
2 2 180
3 2 180
4 2 180
5 0 0
6 0 0
7 2 180

Atoms # full

946 1 7 0 0.06392782002064698 4.199715196388383 8.11303325417171 0 0 0
3316 241 13 0.527 0.28555889419150005 16.939783665813202 14.294930851155986 1 0 0
948 1 1 0 2.0822778507244637 1.9366063374935623 8.071321545124954 0 0 0
953 1 3 0 1.7535991267252442 1.5301712325559926 6.650235813971041 0 0 0
954 1 5 0 1.5359122785300205 0.45983729541284035 6.625721164420803 0 0 0
955 1 5 0 2.5826818786905608 1.7412810520114055 5.986229464946578 0 0 0
956 1 5 0 0.8700540014910927 2.0819127610947223 6.279281606222824 0 0 0
1021 1 1 0 2.100289952659853 7.971054725864697 1.3705660806990587 0 0 0
1026 1 3 0 1.7686570251165432 6.594521242329673 0.8523751761791594 0 0 0
1027 1 5 0 2.650135324159362 6.065719617606091 0.4994107238868698 0 0 0
1028 1 5 0 1.0588530826369928 6.710217575392787 0.0146515171741472 0 0 0
1029 1 5 0 1.3477895214987872 5.9450571208187215 1.6149189759660882 0 0 0
1040 1 1 0 0.008750968018478772 6.262912426398867 5.849692172224692 0 0 0
1046 1 2 0 1.9130558887759714 5.335442439517822 5.768872887746501 0 0 0
1048 1 2 0 1.8237503922244815 6.215041971389167 4.7417747807643265 0 0 0
1058 1 4 0 2.7430604130719276 4.7069408561763835 6.039068238678144 0 0 0
1060 1 4 0 2.5742498657133246 6.4893243375172185 4.021652948175034 0 0 0
1094 1 6 0 0.7378260166366476 5.3641640968851965 6.47842226590953 0 0 0
1096 1 6 0 0.6111380540599572 6.807671268786943 4.818510337836404 0 0 0
1580 1 3 0 6.871583382027871 1.6092565301934112 1.4666108677869196 0 0 0
1581 1 5 0 6.216562106259606 2.482678351651136 1.4126934886654072 0 0 0
1582 1 5 0 6.483515267214307 0.9546816513525029 2.246727671220028 0 0 0
1583 1 5 0 6.8683313549153695 1.0625432108000736 0.5157525894561154 0 0 0
1598 1 2 0 6.069129435583299 1.6343814293170924 4.75875410615398 0 0 0
1600 1 2 0 5.1472077577134225 1.6185306711979879 5.74616437491936 0 0 0
1610 1 4 0 6.296489212117289 2.4129583064803395 4.050299299421171 0 0 0
1612 1 4 0 4.498561646253181 2.4270889880920854 6.026974786180335 0 0 0
1646 1 6 0 6.743322140872017 0.47329311810193786 4.824591125402634 0 0 0
1648 1 6 0 5.232871761982397 0.4217018557284704 6.419829495022593 0 0 0
1874 1 2 0 5.304387277393141 6.403083597781025 0.9746956535179876 0 0 0
1876 1 2 0 6.215556223379252 5.408655527022703 1.0394366973568692 0 0 0
1886 1 4 0 4.4933918553699055 6.60148355285238 1.6606170002491238 0 0 0
1888 1 4 0 6.323037996988626 4.63291435772825 1.7827012481546058 0 0 0
1922 1 6 0 5.531138713337254 7.126838724541218 -0.14088537206471552 0 0 0
1924 1 6 0 7.043346295648687 5.517997445093334 -0.015244326522138724 0 0 0
1949 1 1 0 10.673845152659707 6.408795383672327 16.91379147481753 0 0 0
2661 78 12 0 8.211696219233628 5.072052297197706 4.252809106754367 0 0 0
2662 78 14 -1.054 8.249787598874379 5.109221297836099 4.162294371122644 0 0 0
2663 78 13 0.527 9.13502862962729 4.9602354328807605 3.8854024751161838 0 0 0
2664 78 13 0.527 7.732457999059885 5.617209654704122 3.5649358141039658 0 0 0
2677 82 12 0 8.034047621843357 4.33374687102621 6.935121466075732 0 0 0
2678 82 14 -1.054 7.988193340044301 4.336238304760229 6.840693810301134 0 0 0
2679 82 13 0.527 7.295327647384058 3.7501790709063787 6.597815133269872 0 0 0
2680 82 13 0.527 8.238168420958488 4.946361433353958 6.171528495126211 0 0 0
2741 98 12 0 3.5808256556462847 4.324875602109684 2.9629290208906447 0 0 0
2742 98 14 -1.054 3.59224827325101 4.406332700900836 3.0281951500096698 0 0 0
2743 98 13 0.527 4.253003778697424 5.063281030526337 2.9084477279161507 0 0 0
2744 98 13 0.527 3.0418198714078617 4.536150250038147 3.7783254876724177 0 0 0
3531 295 13 0.527 3.959744581086193 14.930436519118537 3.819784036391958 0 0 0
2917 142 12 0 20.547020685982254 16.844415747950517 15.656028533849002 0 0 0
3659 327 13 0.527 21.607949652934046 0.30758967935808673 2.7350738060851847 0 1 0
2763 103 13 0.527 32.76771550920249 3.807886900288122 1.8873910052716858 0 0 0
2863 128 13 0.527 31.554109456833423 0.08161810107400191 14.12411455299049 0 0 0
3315 241 13 0.527 1.5630140084897524 16.011996781939906 14.388946984304372 1 0 0
2232 5 9 0.04 13.76425280934294 0.1186357354843584 3.4759427900891593 0 0 0
2913 141 12 0 1.4220385267724416 2.334456028334574 1.9220611484876367 0 0 0
2914 141 14 -1.054 1.3936374849736417 2.3933934523838105 2.004190105380615 0 0 0
2915 141 13 0.527 0.5050771724489586 2.658366381874337 2.1550788569221533 0 0 0
2916 141 13 0.527 2.0078819804582055 2.697676670144519 2.64655647709663 0 0 0
2941 148 12 0 5.228544682715564 9.004831177279323 5.671051767221085 0 0 0
2942 148 14 -1.054 5.213600483335466 9.063579684302091 5.585315596853631 0 0 0
2944 148 13 0.527 4.363120710227183 9.353495932342533 5.31117973676034 0 0 0
2966 154 14 -1.054 7.556623704513247 7.906997132727659 7.249735353108352 0 0 0
2967 154 13 0.527 7.795663016858978 7.671504089709105 8.127188324133007 0 0 0
2968 154 13 0.527 6.642580302313469 8.08587575404262 7.127079468080129 0 0 0
2969 155 12 0 3.2547335623979214 0.5830915491938164 0.8871234611706149 0 0 0
2970 155 14 -1.054 3.1502775783553325 0.5837253468337789 0.89779654169834 0 0 0
2971 155 13 0.527 2.6445780455958308 1.3753885634933758 0.8903020240227493 0 0 0
2283 14 10 0.145 33.38907707506632 4.537337469476388 16.96362267607672 -1 0 0
2782 108 14 -1.054 4.98201825040394 0.6209060345521354 16.726927081553672 0 0 0
2277 13 10 0.145 16.720477883999333 14.457523981292784 13.626887086514575 0 0 0
1575 1 1 0 8.271176768932847 2.0696292650375727 1.7655506643859362 0 0 0
1576 1 2 0 10.233312356135995 2.91844470999732 1.6052861000837477 0 0 0
1577 1 2 0 10.188290857817371 2.1568569941713447 2.7114740601549094 0 0 0
1578 1 4 0 11.058203799838642 3.517430223334639 1.242033963155031 0 0 0
1579 1 4 0 10.99685525424599 1.9869917122297154 3.4035476024904265 0 0 0
1584 1 6 0 8.984508536358971 2.947857085045725 1.0610308907896218 0 0 0
1585 1 6 0 8.97206843612803 1.5626342454326698 2.7531255310316656 0 0 0
2976 156 13 0.527 18.54631765893038 16.352463565296848 5.069987136015047 0 0 0
3313 241 12 0 0.5718301905743786 16.008795752768478 14.52152628007547 1 0 0
1592 1 1 0 10.526525926851907 0.17133279715735378 5.897044436605442 0 0 0
1594 1 1 0 14.910668565284446 1.9036005238593439 8.021366385401436 0 0 0
1602 1 2 0 13.97365422340219 1.9751174889321939 6.099095305129998 0 0 0
1607 1 2 0 15.018273100764997 2.839769689780762 6.1027103670700455 0 0 0
1614 1 4 0 13.289625617706477 1.783590010742371 5.27891868852009 0 0 0
1619 1 4 0 15.344083459682105 3.488505869358309 5.299493434379639 0 0 0
1622 1 3 0 10.280264077395604 1.6257988013704459 6.175624613572427 0 0 0
1627 1 5 0 11.21448876014555 2.2049831215548963 6.135954685707933 0 0 0
1630 1 5 0 9.838455900981328 1.7064267696496167 7.187504410658891 0 0 0
1639 1 5 0 9.561447511380672 2.074560326854236 5.4651550286281605 0 0 0
1650 1 6 0 13.878121595071255 1.4198425846433906 7.348924908409396 0 0 0
1655 1 6 0 15.580814444097193 2.819264747943933 7.34675972639361 0 0 0
1877 1 2 0 15.187256703355061 6.518903255808859 2.8358013613344273 0 0 0
1884 1 2 0 14.23315868106335 6.477713999554699 1.8816302450098887 0 0 0
1889 1 4 0 15.654542457325784 5.700760686885754 3.3640795586573318 0 0 0
1896 1 4 0 13.714942191604894 5.594408187296839 1.5180845983811604 0 0 0
1897 1 3 0 10.087490514054174 6.854076837652466 1.1978401818301545 0 0 0
1904 1 5 0 10.869642164683789 6.911779059675037 1.9636582301707262 0 0 0
1905 1 5 0 9.30328444469934 6.1801768908257175 1.5427534211765963 0 0 0
1916 1 5 0 9.705969990385636 7.874150774193234 1.0008092147550094 0 0 0
1925 1 6 0 15.64509281650216 7.777387650576594 2.946380232686913 0 0 0
1932 1 6 0 14.005879124628464 7.742760064457948 1.438685049270372 0 0 0
2076 1 3 0 15.47575346058434 6.363999945215156 6.387941260733884 0 0 0
2098 1 5 0 14.865687212666916 5.805817661775594 5.6624379107812235 0 0 0
2102 1 5 0 15.281926000132803 7.440431357979533 6.289569892376284 0 0 0
2146 1 5 0 15.213781508793112 6.05223009444958 7.4058544985299495 0 0 0
2221 4 8 0.418 10.887167982570695 8.021980565585139 8.006211758552926 0 0 0
2222 4 11 -0.6830000000000001 11.064598563716922 7.405705326103405 8.740325193197261 0 0 0
2223 4 10 0.145 12.40816810696008 7.627314065250615 9.149123760614732 0 0 0
2224 4 9 0.04 12.643691067196256 8.696931873175524 9.052963340301794 0 0 0
2225 4 9 0.04 12.624513576633701 7.27806046629736 10.164825373926613 0 0 0
2226 4 9 0.04 13.014888322043143 7.049774001694937 8.438949472604879 0 0 0
2251 9 8 0.418 33.02801955753059 -0.06825841307991545 2.4701622802775867 0 0 0
1950 1 1 0 10.782093823244148 10.428568175227491 16.806565419200712 0 0 0
2804 113 13 0.527 3.1514468680485814 13.818097997292535 -0.06864432636298014 1 0 0
2767 104 13 0.527 30.922506887315727 2.1014878912400516 15.705131912237373 0 0 0
2828 119 13 0.527 18.081856393846486 12.820209258480705 0.9777095378100411 0 0 0
1944 1 7 0 21.34840779951768 16.85196353808572 7.9799066652817014 0 0 0
2839 122 13 0.527 1.7090633663145602 3.903899890179746 16.203126039917745 0 0 0
2713 91 12 0 12.375826857685833 4.446060118466056 3.0707707996267315 0 0 0
2714 91 14 -1.054 12.424284710061638 4.459017339422075 2.9785246598047648 0 0 0
2715 91 13 0.527 11.996931155403075 4.308202128130627 2.155637222426747 0 0 0
2716 91 13 0.527 13.319675862095934 4.7349818560911014 2.910438611304204 0 0 0
2797 112 12 0 12.153603848157683 9.36614297815364 4.703389484016666 0 0 0
2798 112 14 -1.054 12.10130382810037 9.335310633053048 4.789060220077044 0 0 0
2799 112 13 0.527 12.23445812945087 9.726589318612827 5.632678273309802 0 0 0
2800 112 13 0.527 11.463001763689919 8.646233014712942 4.772906107262968 0 0 0
2809 115 12 0 12.082712717972118 6.614187154513518 5.567449347968208 0 0 0
2810 115 14 -1.054 12.06492786466864 6.634651890271063 5.466008208502955 0 0 0
2811 115 13 0.527 12.7253686055893 6.535488612443161 4.805323950604683 0 0 0
2812 115 13 0.527 11.232709391105503 6.931476956339375 5.146907666568027 0 0 0
2675 81 13 0.527 21.418289259312726 15.295406881102172 0.4253889791251745 0 0 0
620 1 1 0 23.757956458895837 16.901682683391524 5.994142666258785 0 0 0
3360 252 13 0.527 12.561060616040862 16.504317071006312 12.958202145784243 0 0 0
343 1 3 0 24.034128015527976 1.614247777173314 1.324029770860788 0 0 0
344 1 5 0 24.01480264291504 1.5341460840635515 0.2297570923658127 0 0 0
345 1 5 0 23.358993425628892 2.3979608237941017 1.6669831792931118 0 0 0
346 1 5 0 23.72537591843486 0.6589472182567401 1.7702818910359037 0 0 0
358 1 2 0 23.30368790792706 1.4467752824366142 4.839348054773469 0 0 0
360 1 2 0 22.48504382588008 1.4705111427828803 5.90570906759758 0 0 0
368 1 4 0 23.453940444375615 2.214142253697955 4.098171925346383 0 0 0
370 1 4 0 21.77848403268942 2.23528156134313 6.177368395640094 0 0 0
398 1 6 0 24.043506759330064 0.30125502378576935 4.914201457450991 0 0 0
400 1 6 0 22.6494466341225 0.3047265585564671 6.5896593541547475 0 0 0
561 1 2 0 22.731639214005178 6.419242536788106 1.7060509605474814 0 0 0
563 1 2 0 23.545573724844214 5.3678880859222335 1.5923792844516358 0 0 0
571 1 4 0 22.214127788953597 6.7556083692419024 2.5854715642005797 0 0 0
573 1 4 0 23.77502965106247 4.626169845986006 2.339312181303276 0 0 0
601 1 6 0 22.669042760310077 7.022895709476644 0.4851785284373529 0 0 0
603 1 6 0 24.076015405598707 5.35739652191897 0.32078650095806316 0 0 0
1588 1 7 0 17.104412121766376 3.908951058104278 8.165578045930143 0 0 0
2919 142 13 0.527 20.556182065672715 16.130212607708586 14.956124225911902 0 0 0
1593 1 1 0 19.41761828349196 1.9103856425268817 8.07507853805425 0 0 0
1623 1 3 0 18.886530180218596 1.4166821871694355 6.734972309530274 0 0 0
1632 1 5 0 19.560107978282037 0.6836054627741681 6.270431952403892 0 0 0
1638 1 5 0 18.755032805716354 2.2574978085048194 6.041411104427384 0 0 0
1642 1 5 0 17.921251256330958 0.935857718497165 6.904134220505605 0 0 0
1870 1 1 0 19.392668968748424 8.255042980402196 2.1129729922326606 0 0 0
1900 1 3 0 19.146921913893266 6.829938078189137 1.6045926716753907 0 0 0
1908 1 5 0 19.986867709345344 6.178986846106941 1.8582461263104535 0 0 0
1914 1 5 0 19.083402561649486 6.862778915492875 0.5076640891139169 0 0 0
1918 1 5 0 18.22802791865946 6.395543943214214 2.0052138091662366 0 0 0
1956 1 1 0 16.93947815002936 6.081998511332194 6.132909616924277 0 0 0
1980 1 2 0 18.960149611971428 5.423238016498211 6.41342502874173 0 0 0
1984 1 2 0 18.942302544815462 6.293907338375682 5.383813819631885 0 0 0
2028 1 4 0 19.79954137496732 4.876755300024734 6.816051158506691 0 0 0
2032 1 4 0 19.765605444494575 6.644309654366637 4.788611146542095 0 0 0
2172 1 6 0 17.672294135829144 5.228516538519305 6.821195958914136 0 0 0
2176 1 6 0 17.662783336339672 6.71563667568303 5.228688587829305 0 0 0
2317 20 8 0.418 23.55002098035928 7.883301300044705 6.91567902909671 0 0 0
2318 20 11 -0.6830000000000001 23.219375682752904 8.04996784860145 6.0481014502924655 0 0 0
2319 20 10 0.145 24.175757049077294 7.328940476203828 5.161529640651144 0 0 0
2320 20 9 0.04 24.849050732950918 7.958824639649849 4.55385190293145 0 0 0
2321 20 9 0.04 24.922869102010026 6.669819063205506 5.6560574680132545 0 0 0
2322 20 9 0.04 23.54581942909939 6.767579517728016 4.437346057862452 0 0 0
2808 114 13 0.527 17.53009926389689 0.8192947650335962 11.694808634450041 0 0 0
2493 49 10 0.145 4.429549996346124 15.825840499774863 16.89121335776406 0 0 0
2655 76 13 0.527 12.890082779043551 15.909346712752004 3.5897481742125805 0 0 0
2667 79 13 0.527 27.3673773816808 9.227061704917839 4.238936370992159 0 0 0
2733 96 12 0 20.938183173630918 2.771294044044413 1.8208885089240714 0 0 0
2734 96 14 -1.054 20.91701981813823 2.705568441513009 1.7417831207099017 0 0 0
2735 96 13 0.527 21.062589379938636 2.931871413843682 0.8417180666033586 0 0 0
2736 96 13 0.527 20.567040742263792 1.8444446592070425 1.8777966532570294 0 0 0
2749 100 12 0 17.469298351500342 3.1262394610475988 3.7928385498288897 0 0 0
2750 100 14 -1.054 17.549856963919495 3.062649936295934 3.815021046562727 0 0 0
2751 100 13 0.527 17.43174459360136 2.186890693295031 4.133791843203708 0 0 0
2752 100 13 0.527 18.446057044608583 3.324220004089107 3.710503295941669 0 0 0
2757 102 12 0 25.04548381529051 4.008092136076871 6.8165704118714245 0 0 0
2758 102 14 -1.054 25.02629773446095 4.039622769968153 6.718269223879756 0 0 0
2760 102 13 0.527 24.23289232062722 3.8258969065090227 6.262915201091438 0 0 0
2833 121 12 0 18.29554927175891 1.7716762316828483 1.302225272950435 0 0 0
2834 121 14 -1.054 18.213802824099158 1.7821083132853732 1.2371554960582978 0 0 0
2835 121 13 0.527 18.218049638163773 2.3751877183303907 0.5086233697206021 0 0 0
2836 121 13 0.527 17.41999541085751 1.2897887679841835 1.3372012049174862 0 0 0
2806 114 14 -1.054 17.257833103855823 0.3474717889113046 12.460167624569419 0 0 0
338 1 1 0 25.431648943932046 1.9934064249565182 1.7914019543538042 0 0 0
339 1 2 0 27.351879915055108 2.9448324300210875 1.9233473710350077 0 0 0
340 1 2 0 27.27617732499397 2.020519727417469 2.8961398188333924 0 0 0
341 1 4 0 28.167467607905685 3.6035681965225166 1.6665571090550315 0 0 0
342 1 4 0 28.014953641628754 1.7619507729552415 3.6363039202387895 0 0 0
347 1 6 0 26.173110395957373 2.951493511094855 1.2621456571292895 0 0 0
348 1 6 0 26.079002442621217 1.3831332576815976 2.764229852904579 0 0 0
2801 113 12 0 2.4405199484781654 13.147283755743066 0.14260270814198694 1 0 0
2285 14 9 0.04 33.73758695977134 5.572145607152467 16.8951345539846 -1 0 0
2704 88 13 0.527 13.191657092781286 -0.11174990353396985 11.581606851700716 0 0 0
354 1 1 0 32.144324682074796 2.145710999829815 8.31907435734216 0 0 0
361 1 2 0 31.179972083865547 2.1473906589915734 6.428310161977741 0 0 0
366 1 2 0 32.101908601127505 3.128867440190575 6.428301229165544 0 0 0
371 1 4 0 30.502555429080225 1.8689668284948406 5.638546822206952 0 0 0
376 1 4 0 32.356379714249975 3.7867148343284494 5.615135483276234 0 0 0
378 1 3 0 27.300970457730376 1.4584657604583222 6.586684611965007 0 0 0
382 1 5 0 27.740925050675436 2.3449528467425997 6.120066512067551 0 0 0
385 1 5 0 27.481166809927437 1.4613592639284922 7.661815361632234 0 0 0
392 1 5 0 26.21927077245333 1.4572127867144073 6.4218530987352445 0 0 0
401 1 6 0 31.1590627362843 1.5793660819042419 7.657242175253722 0 0 0
406 1 6 0 32.75244607435409 3.1021524079595584 7.624051687558358 0 0 0
564 1 2 0 31.877577662082693 6.8098852359254005 2.6943990174536525 0 0 0
569 1 2 0 30.80455027873546 6.974232066132005 1.8975828929653558 0 0 0
574 1 4 0 32.05451055316203 6.035594048756564 3.4188384771326685 0 0 0
579 1 4 0 29.952917162358744 6.322768703050569 1.7823673418571704 0 0 0
580 1 3 0 27.28931512282982 6.922579310983222 0.9299674167919705 0 0 0
586 1 5 0 27.807326637017024 7.852338261922759 1.1087977599929235 0 0 0
587 1 5 0 27.305883159939764 6.217237900232294 1.7577522000455306 0 0 0
596 1 5 0 26.27643684778666 7.264702815742382 0.7837835313872865 0 0 0
604 1 6 0 32.669751549261825 7.906026298709172 2.571748979203614 0 0 0
609 1 6 0 31.035982279612384 8.045191062532151 1.1129776465318135 0 0 0
714 1 3 0 32.94940571858433 6.6289742865826575 6.223795748543051 0 0 0
731 1 5 0 32.52571927929178 7.328783710855482 5.494709089648254 0 0 0
733 1 5 0 32.94985043229813 7.1066824306079095 7.208225333188091 0 0 0
767 1 5 0 32.3103373272282 5.751635458518355 6.266771431953576 0 0 0
2209 2 8 0.418 25.83146184452453 9.174634875593924 8.587695175987378 0 0 0
2210 2 11 -0.6830000000000001 25.034981780057954 8.87009408611124 8.112067284201794 0 0 0
2895 136 13 0.527 31.647873380598444 16.653249649785035 15.290574212875859 0 0 0
2252 9 11 -0.6830000000000001 32.822046901181544 0.8680151570313586 2.63531014178774 0 0 0
2253 9 10 0.145 33.34175043888742 0.9107515541595876 3.9413054364176094 0 0 0
2254 9 9 0.04 -0.04772300378027289 0.4438922277991614 4.128503072279037 1 0 0
2255 9 9 0.04 33.51961596203228 1.9071943013152217 4.323328341827251 0 0 0
2685 84 12 0 30.014671789448784 4.560039302920121 7.688381530075562 0 0 0
2686 84 14 -1.054 30.09568995958048 4.5663349342616835 7.754878203772817 0 0 0
2687 84 13 0.527 30.55129559727758 3.8085592798854964 8.072240247627626 0 0 0
2688 84 13 0.527 30.42261074088644 5.384917909280509 8.079784478979578 0 0 0
2697 87 12 0 27.658127257348855 6.141352566364703 6.697017955256761 0 0 0
2698 87 14 -1.054 27.75429412978407 6.142827049879008 6.739150296981802 0 0 0
2699 87 13 0.527 28.194245742160316 5.363924178563868 7.025981276567714 0 0 0
2700 87 13 0.527 28.243185000410424 6.935971446304547 6.859261000239579 0 0 0
2725 94 12 0 29.343160180960343 9.377246303421373 7.20854315659345 0 0 0
2726 94 14 -1.054 29.39790362489592 9.436386017454252 7.141230116525195 0 0 0
2727 94 13 0.527 29.818988904033773 9.08094736705592 6.3803947565627155 0 0 0
2728 94 13 0.527 29.505566293004584 10.363034663928628 7.251912157655629 0 0 0
2759 102 13 0.527 25.634391444736675 4.5578920955634326 6.224166149601712 0 0 0
2761 103 12 0 33.67235847114105 4.157754189532963 1.6439832175335523 0 0 0
2762 103 14 -1.054 33.579456395678534 4.186946162729878 1.6047096896802544 0 0 0
2764 103 13 0.527 33.493888341314964 4.8479605743965966 0.9426989833768069 0 0 0
2768 104 13 0.527 30.09770573516258 0.8546782766059515 15.18871079358699 0 0 0
2853 126 12 0 25.30950726665166 4.722630339717859 4.168739176128976 0 0 0
2854 126 14 -1.054 25.35791329980093 4.754310180050429 4.081111293586593 0 0 0
2855 126 13 0.527 25.07134424913625 5.498218417246991 3.5841219994074938 0 0 0
2856 126 13 0.527 26.112019443896255 4.316386538281527 3.7317332479547596 0 0 0
2857 127 12 0 31.470742923223852 3.3385287154528127 2.8870060159707855 0 0 0
2858 127 14 -1.054 31.48084905661434 3.321990210007588 2.99020367185301 0 0 0
2859 127 13 0.527 31.071187885679183 3.8698301166857236 3.6340738718194716 0 0 0
2860 127 13 0.527 31.98812186650865 2.6144106125825872 3.3430838548655792 0 0 0
2891 135 13 0.527 29.29918526268803 8.546333232326317 4.394937185094186 0 0 0
2957 152 12 0 29.296313587234554 5.09016680331126 4.35421677170408 0 0 0
2958 152 14 -1.054 29.23059443726166 5.131652100143639 4.424823829043689 0 0 0
2959 152 13 0.527 29.366031789078583 5.0531541543706915 5.351115094602554 0 0 0
2960 152 13 0.527 28.460398598495228 5.610842146450977 4.180501653214874 0 0 0
1022 1 2 0 2.1032839699362227 9.810727591646065 2.472507810218502 0 0 0
1023 1 2 0 3.039394717273927 9.905157670042671 1.5204168143462582 0 0 0
1024 1 4 0 1.7877319110315757 10.57888958785566 3.1656396813720136 0 0 0
1025 1 4 0 3.720234052868781 10.731754712862498 1.3401995410014476 0 0 0
1030 1 6 0 1.5067832904988152 8.596768075945672 2.373918119804304 0 0 0
1031 1 6 0 3.0388270921997265 8.743106966869291 0.836065852093129 0 0 0
1032 1 7 0 0.36547277962986957 12.366942628614206 8.080554467247364 0 0 0
1035 1 7 0 0.04452880837545878 8.293335116775745 3.6479683350134966 0 0 0
1037 1 1 0 0.3860327372166481 10.349663990934335 5.815226990797059 0 0 0
1043 1 1 0 2.0501590510591656 14.692732384549945 8.368149776299633 0 0 0
1051 1 2 0 3.5173873367108004 14.538951015072096 6.774893939869909 0 0 0
1054 1 2 0 2.778870210146091 13.413701317426538 6.766659283485619 0 0 0
1063 1 4 0 4.342723142201355 14.811130481427645 6.12843976449931 0 0 0
1066 1 4 0 2.8832925031558765 12.559059257212327 6.100261715695121 0 0 0
1069 1 3 0 1.4307070614457829 9.552076674328555 6.545233594304511 0 0 0
1076 1 5 0 1.0040126898297166 9.213405396479976 7.503585558897849 0 0 0
1077 1 5 0 2.287665037205008 10.201059367783804 6.75134575621123 0 0 0
1088 1 5 0 1.7514962135660366 8.711814750433446 5.935067369477196 0 0 0
1099 1 6 0 3.089544537330473 15.307437179108572 7.837855998007255 0 0 0
1102 1 6 0 1.816815397692916 13.561970790665095 7.732528339974551 0 0 0
1880 1 2 0 7.1929044123979 13.4660428114442 2.251421005844496 0 0 0
1881 1 2 0 7.130035781414017 14.452134661774652 3.1561956329726018 0 0 0
1892 1 4 0 6.53481716561549 12.616578076353658 2.179522814558132 0 0 0
1893 1 4 0 6.397950046174491 14.569793664471932 3.948985835970044 0 0 0
1898 1 3 0 6.859878583254509 9.978792645869518 0.6633703438765178 0 0 0
1903 1 5 0 6.087534374160678 9.594540687789676 1.3439701878680028 0 0 0
1906 1 5 0 7.540704028716996 10.584154114518704 1.2851805005325923 0 0 0
1915 1 5 0 7.477029944912129 9.11101478543419 0.36047945943871307 0 0 0
1928 1 6 0 8.20569374325869 13.763530682376125 1.383532346777935 0 0 0
1929 1 6 0 8.149712761132436 15.325123483456931 2.911573148842251 0 0 0
2374 29 9 0.04 20.778905631228383 1.9800533744930418 15.514554761999095 0 0 0
2068 1 3 0 6.97829860378637 15.833466090879146 7.098897183238336 0 0 0
2090 1 5 0 7.177190269364206 14.936971120860239 6.505256481435844 0 0 0
2110 1 5 0 6.313698406575726 15.600649086986682 7.92749167406115 0 0 0
2138 1 5 0 7.934475725063702 16.14757445246196 7.514469286895895 0 0 0
2323 21 8 0.418 6.599055087575321 13.170739336909525 7.70311212201015 0 0 0
2324 21 11 -0.6830000000000001 5.640478675944125 13.197575271220765 7.934216468124097 0 0 0
2325 21 10 0.145 5.220987326515954 11.922104591137117 8.205577079704337 0 0 0
2327 21 9 0.04 5.974717244809297 11.160256620880265 8.294946424647955 0 0 0
2669 80 12 0 7.115846681008355 9.530421118241946 3.9123814396088177 0 0 0
2670 80 14 -1.054 7.183636175296008 9.594510294767526 3.864188594289689 0 0 0
2671 80 13 0.527 7.0053812306448044 10.505554205392663 3.7201621844143946 0 0 0
2672 80 13 0.527 8.01664634491363 9.302481522621747 3.5427370180805564 0 0 0
2785 109 12 0 4.661103905055182 14.457484888544508 0.40052956202985945 0 0 0
2786 109 14 -1.054 4.712626642350774 14.439463405572667 0.49022925860173105 0 0 0
1935 1 7 0 12.979157434657784 8.404093402881738 16.91822499837711 0 0 0
2788 109 13 0.527 4.485072733521775 14.859782340277611 1.2989761513679967 0 0 0
2492 49 11 -0.6830000000000001 3.469977855283396 16.54776723225691 16.150900904102702 0 0 0
2925 144 12 0 9.603781567910678 8.753648073395308 3.9543951632282646 0 0 0
2926 144 14 -1.054 9.557828044013265 8.847965818719137 3.9586174783477466 0 0 0
2927 144 13 0.527 9.76298026392611 9.539398651373476 3.3566597367289255 0 0 0
2936 146 13 0.527 33.53167137591577 12.787556655958536 1.7532804150146033 0 0 0
2943 148 13 0.527 5.919739415287166 9.341094899445478 5.031355509240078 0 0 0
2965 154 12 0 7.626509646844828 7.912858656042534 7.171588114570291 0 0 0
1869 1 1 0 14.92377240622171 8.45233134217171 2.0683854094146037 0 0 0
1872 1 1 0 8.866940007552248 14.842622310605643 1.8837780295887603 0 0 0
1873 1 2 0 11.570070193754537 10.501486415353577 1.3926825843919626 0 0 0
1875 1 2 0 10.558100757320597 11.388481967832565 1.3673718522420508 0 0 0
1885 1 4 0 12.26010705418059 10.327856494393687 2.2006428290363993 0 0 0
1887 1 4 0 10.305719441990721 12.073992042535384 2.160111977571751 0 0 0
1899 1 3 0 15.190936124025267 9.843967282131786 1.7256192400693058 0 0 0
1902 1 3 0 10.130765237828719 15.493893351981185 1.3053337482183296 0 0 0
1907 1 5 0 15.037370165773108 9.9908864360089 0.655630592476035 0 0 0
1909 1 5 0 10.43338489583205 16.31178411901577 1.9680422877990282 0 0 0
1911 1 5 0 9.94099836892735 15.92306400886886 0.3040552420616445 0 0 0
1913 1 5 0 16.20092018126831 10.104975937504042 2.046271805395641 0 0 0
1917 1 5 0 14.441680619491411 10.41112619384079 2.255655767214503 0 0 0
1919 1 5 0 10.931074776909053 14.736878819640568 1.2209574817832198 0 0 0
1921 1 6 0 11.607829972357424 9.835344724750032 0.22408083866774686 0 0 0
1923 1 6 0 10.010355002261223 11.378240011437574 0.12706342320759845 0 0 0
1964 1 1 0 14.819811121676027 14.839692005286482 7.9253568702239825 0 0 0
1971 1 2 0 10.581635941810555 15.488136995917738 5.114495945941549 0 0 0
1977 1 2 0 15.462327282066228 11.487944324581061 6.0751025078846475 0 0 0
1983 1 2 0 15.461427683312117 10.545342271456182 5.12074362033014 0 0 0
1989 1 2 0 11.439026314185933 15.485646598445403 6.1446036686442085 0 0 0
2019 1 4 0 10.388267747576093 14.68916538729647 4.413339980850688 0 0 0
2025 1 4 0 14.699694019367678 12.243737473472114 6.244726428013786 0 0 0
2031 1 4 0 14.679094706864811 10.328000876613439 4.404341181552544 0 0 0
2037 1 4 0 12.072299886342813 14.668539067382765 6.4852178600720505 0 0 0
2084 1 3 0 15.159123181183949 15.09882693452476 6.52181715894362 0 0 0
2118 1 5 0 14.35644757451971 14.76971921372684 5.842974175514488 0 0 0
2130 1 5 0 16.074086523313436 14.561896065626666 6.26214123672744 0 0 0
2154 1 5 0 15.363506798194111 16.17500151892923 6.3785073780639525 0 0 0
2163 1 6 0 9.990965545197637 16.711854979653396 5.089390854904405 0 0 0
2169 1 6 0 16.613908586216393 11.3963682861879 6.770993353702106 0 0 0
2175 1 6 0 16.61517937138364 9.8401662621561 5.222428292493794 0 0 0
2181 1 6 0 11.47907460980322 16.73621510872992 6.661081502652133 0 0 0
2777 107 12 0 15.231366414536334 3.829694366441692 15.856326832928332 0 0 0
2305 18 8 0.418 8.981159242925429 13.17046642130944 5.108926273840628 0 0 0
2306 18 11 -0.6830000000000001 9.693109121584115 12.535242763806137 5.181130258519179 0 0 0
2307 18 10 0.145 9.620295687914364 12.12285173195564 6.552420180292582 0 0 0
2308 18 9 0.04 8.612185520323395 12.168727172173973 6.980846141368303 0 0 0
2309 18 9 0.04 9.960010243635915 11.111771658484146 6.802918916275012 0 0 0
2310 18 9 0.04 10.28029857026363 12.822337742195838 7.089818793397544 0 0 0
2653 76 12 0 13.660928737185316 16.405873544754765 3.190634535038355 0 0 0
2654 76 14 -1.054 13.559546838621321 16.412514462824685 3.164120759454781 0 0 0
3941 398 12 0 13.416944318196864 16.72817841694153 15.936571586652882 0 0 0
2297 16 9 0.04 33.413228967099926 14.439696111377698 13.57933099322004 0 0 0
2709 90 12 0 15.418299955914062 8.095215721251897 8.852304841587028 0 0 0
2710 90 14 -1.054 15.436709170486623 7.9918537230046915 8.853976382944511 0 0 0
2711 90 13 0.527 15.49025719471296 7.473615539631028 8.072258926855985 0 0 0
2712 90 13 0.527 15.560969367955611 7.511754197468006 9.65183867753729 0 0 0
3314 241 14 -1.054 0.6322927930189571 16.088924127419194 14.490718714705665 1 0 0
2276 13 11 -0.6830000000000001 16.344821904962547 15.768858182537164 13.289278132850683 0 0 0
2841 123 12 0 14.562836645282125 12.567755720448277 3.266029006148826 0 0 0
2842 123 14 -1.054 14.546905283101703 12.619297583380204 3.1759455104401932 0 0 0
2843 123 13 0.527 15.24687517953138 12.851908661206108 2.594178405772637 0 0 0
2844 123 13 0.527 13.693059882243542 12.884511491767965 2.8876273590032517 0 0 0
2928 144 13 0.527 8.908826667330274 9.067515391329286 4.601357097969748 0 0 0
2945 149 12 0 17.23498704000147 14.382729680147474 1.7344406257071314 0 0 0
566 1 2 0 24.20005731954994 14.143181475273733 1.9309187111138137 0 0 0
567 1 2 0 24.29335865404093 15.020651637540583 2.928626402426814 0 0 0
576 1 4 0 23.351115456977254 13.501223681528128 1.7237664868765747 0 0 0
577 1 4 0 23.52427531573241 15.232690602146828 3.656173582931715 0 0 0
581 1 3 0 24.355524855122216 10.398910060823344 1.7091377640708778 0 0 0
585 1 5 0 23.681418343056112 10.708571953935602 2.508916071326028 0 0 0