LAMMPS data file via write_data, version 22 Jul 2025, timestep = 10000, units = real

2368 atoms
14 atom types
2808 bonds
12 bond types
4728 angles
16 angle types
3840 dihedrals
12 dihedral types
1152 impropers
4 improper types

0.49645165974237315 33.52755041545282 xlo xhi
0.5514127775692188 33.472589297626335 ylo yhi
0.19643033086297734 33.82757174433263 zlo zhi

Masses

1 12.011
2 12.011
3 12.011
4 1.008
5 1.008
6 14.007
7 65.38
8 1.008
9 15.035
10 15.9994
11 0.0001
12 15.999
13 1.00784
14 0.0001

Pair Coeffs # lj/cut/coul/long

1 0.086 3.4
2 0.086 3.4
3 0.1094 3.4
4 0.015 2.511
5 0.0157 2.65
6 0.17 3.25
7 0.0125 1.96
8 0.2195 3.6499
9 0.1791 3.1655
10 0 1
11 0.2108 3.637
12 0.1848 3.165
13 0 1
14 0 1

Bond Coeffs # harmonic

1 346.543 1.49
2 488 1.335
3 540.249 1.35
4 367 1.08
5 440.221 1.37
6 340 1.09
7 78.5 2.011
8 0 0.945
9 0 1.43
10 0 0.037
11 0 0.105
12 0 0.9572

Angle Coeffs # harmonic

1 48.088 109.32
2 71.254 105.27
3 48.68 128.33
4 49.451 125.67
5 76.75 108.65
6 32.477 126.4
7 66.015 123.92
8 49.954 125.68
9 35 109.5
10 75.484 112.16
11 35.24 109.48
12 0 108.5
13 0 127.53
14 0 123.97
15 0 52.26
16 0 104.52

Dihedral Coeffs # charmm

1 2.325 2 180 0
2 2.325 2 180 0
3 2.325 2 180 0
4 2.325 2 180 0
5 5 2 180 0
6 5 2 180 0
7 5 2 180 0
8 5 2 180 0
9 5.15 2 180 0
10 5.15 2 180 0
11 5.15 2 180 0
12 0 0 0 0

Improper Coeffs # harmonic

1 2 180
2 2 180
3 2 180
4 0 0

Atoms # full

2242 10 9 0.1546 3.372412950512731 1.2261085966060437 3.736566831076605 0 0 1
2244 10 11 -0.6544 3.3939787975993707 1.1846092667034211 3.731200037515204 0 0 1
2241 10 10 0 3.3079427107931596 1.5486954624311264 4.622445239145876 0 0 1
2243 10 8 0.4998 3.817405295311245 2.3022349382730614 2.907705472147533 0 0 1
1575 1 1 0.433743478261 8.85617113161436 2.682579976651344 2.254767906266523 0 0 0
1576 1 2 -0.192556521739 10.828873632264918 3.598050802490146 2.04499961142227 0 0 0
1577 1 2 -0.192556521739 10.924487128732647 2.6464469323949418 2.979514040653439 0 0 0
1580 1 3 -0.602556521739 7.514297971224973 2.225315227372544 1.9317683908168015 0 0 0
1581 1 5 0.157043478261 6.950655830559621 3.081754225569313 1.4798768217325584 0 0 0
1582 1 5 0.157043478261 6.98837062531615 1.8641166238328908 2.863625184830404 0 0 0
1583 1 5 0.157043478261 7.652362608525945 1.4193971422992562 1.2631341619726273 0 0 0
1584 1 6 -0.300956521739 9.55396506156173 3.6339474450586744 1.5936823514330172 0 0 0
1585 1 6 -0.300956521739 9.699736533596536 2.0769338385582574 3.0732845510167244 0 0 0
1610 1 4 0.158343478261 6.962892706011005 3.21470765431961 4.741359544756399 0 0 0
1646 1 6 -0.300956521739 7.670777532507996 1.2208626816595047 5.517295517318807 0 0 0
1876 1 2 -0.192556521739 6.717927455434892 5.601956687259097 1.9622051996158425 0 0 0
1888 1 4 0.158343478261 7.086044712973929 4.928822396612181 2.693232708178761 0 0 0
1924 1 6 -0.300956521739 7.285058225154646 5.794084378091778 0.7630572639821978 0 0 0
1578 1 4 0.158343478261 11.674136336307056 4.094542125793389 1.615298199566108 0 0 0
1598 1 2 -0.192556521739 6.93347088911039 2.37176972924115 5.447921696245564 0 0 0
1587 1 7 0.736043478261 9.123138439721105 0.6356023886930526 4.383799332428027 0 0 0
1905 1 5 0.157043478261 9.223825703377187 7.517278766445404 1.7219830397986007 0 0 0
1579 1 4 0.158343478261 11.853205649489253 2.3344822669071608 3.4974766886248587 0 0 0
1889 1 4 0.158343478261 14.592015367689886 6.204155890212283 4.242808575852477 0 0 0
2257 14 10 0 17.971393480307253 1.9401225605636854 31.66931917879277 0 0 -1
2258 14 9 0.1546 17.962150010597316 2.258779193290602 32.55891006975817 0 0 -1
2260 14 11 -0.6544 17.921517274397573 2.277304515516899 32.573808528445525 0 0 -1
2259 14 8 0.4998 19.14413756723925 3.037019604438532 32.759798629091065 0 0 -1
338 1 1 0.433743478261 25.054527543477526 2.396308116856729 2.7085334747911123 0 0 0
339 1 2 -0.192556521739 26.89788931661149 3.4020754908093993 2.7271762662248653 0 0 0
340 1 2 -0.192556521739 26.86261511699957 2.5525874096449277 3.7872108461985383 0 0 0
341 1 4 0.158343478261 27.359004371311386 2.8416645945717134 1.8898202020982062 0 0 0
342 1 4 0.158343478261 27.493182072322078 1.732463333868143 3.5579351431121893 0 0 0
343 1 3 -0.602556521739 23.673244068930376 1.9962316482577085 2.3965756140810703 0 0 0
344 1 5 0.157043478261 23.649705107769883 1.1584591429801239 1.6817554314794203 0 0 0
345 1 5 0.157043478261 23.08834286729716 2.83436782663051 1.9520589858879875 0 0 0
346 1 5 0.157043478261 23.138179227451474 1.657026279774736 3.2436093917173734 0 0 0
347 1 6 -0.300956521739 25.54321872487663 3.6236997403703426 2.3891089800264496 0 0 0
348 1 6 -0.300956521739 25.558474527972557 2.166117160866236 3.9183024326221316 0 0 0
573 1 4 0.158343478261 23.610872358743958 5.134510599363713 3.1100006167242262 0 0 0
563 1 2 -0.192556521739 23.136289856923828 5.604671488929752 2.194545991362957 0 0 0
603 1 6 -0.300956521739 23.387086508835527 5.383779594447831 0.8264594666429089 0 0 0
412 1 7 0.736043478261 25.085921058367916 4.438641261173313 0.5190152238558933 0 0 1
2347 36 13 0.527 26.00527090628392 3.756661843928971 5.476503759207123 0 0 0
2348 36 13 0.527 25.36860122957692 4.529211952229253 6.700904149665195 0 0 0
2345 36 12 0 25.87798838651999 4.674369502405353 5.852712074707855 0 0 0
2346 36 14 -1.054 25.845214049188364 4.583204152663488 5.893195631938873 0 0 0
350 1 7 0.736043478261 25.2373939455703 33.20681911929789 4.6688033125301 0 -1 0
368 1 4 0.158343478261 22.47535496208565 1.6421983410462753 4.971830595984474 0 0 0
579 1 4 0.158343478261 29.819593435610802 5.81911830757068 1.7645817969076905 0 0 0
1021 1 1 0.433743478261 2.8340845757983124 8.233626662183685 2.8380144342147045 0 0 0
1022 1 2 -0.192556521739 2.472894373410247 10.274523948207564 3.6955681827021847 0 0 0
1023 1 2 -0.192556521739 3.1627262128878484 10.33808428594162 2.506422257264471 0 0 0
1024 1 4 0.158343478261 1.5410891551657664 10.876826919549762 3.690229774825952 0 0 0
1025 1 4 0.158343478261 3.9165979039534635 11.105528261331022 2.473437577190998 0 0 0
1026 1 3 -0.602556521739 2.179959968928972 7.161409537573368 2.0019799870029367 0 0 0
1027 1 5 0.157043478261 1.451054074349682 6.637974761507752 2.532292884678724 0 0 0
1028 1 5 0.157043478261 2.884925452011554 6.492483045470118 1.5475967636180463 0 0 0
1029 1 5 0.157043478261 1.6289870870178715 7.545704011781463 1.162387939042786 0 0 0
1030 1 6 -0.300956521739 2.197932120926328 8.934266505455758 3.767132204464396 0 0 0
1031 1 6 -0.300956521739 3.6262718438954433 9.029695868838214 2.2557350700280363 0 0 0
1048 1 2 -0.192556521739 2.242043039382489 6.221574192747106 5.409369843726471 0 0 0
1060 1 4 0.158343478261 2.913972377525868 6.970051974940252 5.510398023276597 0 0 0
1096 1 6 -0.300956521739 0.9450799537110156 6.615429182800757 5.448362343161654 0 0 0
1874 1 2 -0.192556521739 5.69194321352388 6.417089235862831 2.106571921516262 0 0 0
1886 1 4 0.158343478261 4.994975804591929 6.538791402891652 2.926080320991736 0 0 0
1922 1 6 -0.300956521739 5.710881659358546 7.123432894304745 0.8906009399720259 0 0 0
1660 1 7 0.736043478261 4.484654384647088 8.562797840156437 0.5083301328344629 0 0 1
2277 19 10 0 9.492273700853639 10.90306399108116 6.022673761008445 0 0 0
1906 1 5 0.157043478261 7.968990822894409 9.305037302245378 1.5276983731398477 0 0 0
1897 1 3 -0.602556521739 10.249431985551379 7.115806330656178 1.671140757761552 0 0 0
1898 1 3 -0.602556521739 7.308738084554923 10.068317154928534 1.744155418541746 0 0 0
1903 1 5 0.157043478261 8.079448132808311 10.724115483768221 2.28142276846689 0 0 0
1904 1 5 0.157043478261 9.84145449086584 6.326460388208281 2.266553820709252 0 0 0
1915 1 5 0.157043478261 6.746567979576144 9.750843699529945 2.599033658345682 0 0 0
1916 1 5 0.157043478261 10.799127591238385 7.625701507671613 2.4022915653036807 0 0 0
1675 1 1 0.433743478261 6.6155416334596175 10.751337201914472 0.6020506306736019 0 0 1
1873 1 2 -0.192556521739 11.794516051422598 11.022285433557169 2.251511602590407 0 0 0
1875 1 2 -0.192556521739 10.883201996682034 12.021187160824969 2.2397408165655737 0 0 0
1923 1 6 -0.300956521739 10.28084521918058 11.951888017641423 0.9843813578212715 0 0 0
2278 19 9 0.1546 8.798514549541771 10.750444846368605 6.645897632636212 0 0 0
2280 19 11 -0.6544 8.782726312678669 10.706193054744078 6.6488264699182285 0 0 0
1896 1 4 0.158343478261 12.858341695309246 6.309406114033616 2.2838489043681465 0 0 0
1921 1 6 -0.300956521739 11.70783351887336 10.430569060342393 0.9791375707128727 0 0 0
1869 1 1 0.433743478261 14.919298241645416 8.769743711887234 2.2885651785109293 0 0 0
1877 1 2 -0.192556521739 14.512558069715135 6.94511018920017 3.523667888623463 0 0 0
1884 1 2 -0.192556521739 13.63376919452284 7.016708100297861 2.497180723840913 0 0 0
1885 1 4 0.158343478261 12.466087835256829 10.740378763756869 3.095226042842602 0 0 0
1899 1 3 -0.602556521739 15.571991750449234 10.038686065397377 1.8041239284068322 0 0 0
1907 1 5 0.157043478261 15.944342379947251 10.729474490246917 2.5131893793218625 0 0 0
1913 1 5 0.157043478261 15.149187797700796 10.739069476607957 1.071469252178701 0 0 0
1917 1 5 0.157043478261 16.40352929198138 9.838149783091659 1.1643823773929367 0 0 0
1925 1 6 -0.300956521739 15.33154011526656 8.002011993204846 3.279969018838657 0 0 0
1932 1 6 -0.300956521739 13.826282091317585 8.193532250597888 1.8297927524043807 0 0 0
1983 1 2 -0.192556521739 15.530745442924912 10.975066850920053 5.143654724064856 0 0 0
2031 1 4 0.158343478261 14.703007526963086 10.826994942442292 4.466656894253875 0 0 0
2175 1 6 -0.300956521739 16.63478521304006 10.22110220144259 5.323650202317311 0 0 0
1940 1 7 0.736043478261 16.984466062274034 8.547406798318702 4.425398875009674 0 0 0
561 1 2 -0.192556521739 22.1219404225991 6.439109898758727 2.1002404200462492 0 0 0
571 1 4 0.158343478261 21.675057086134732 6.936426076060087 2.8785655821867384 0 0 0
601 1 6 -0.300956521739 21.912676735738575 6.626068588026742 0.6696120225615612 0 0 0
1870 1 1 0.433743478261 18.91177836229149 8.320626139956143 2.0889401722017165 0 0 0
1878 1 2 -0.192556521739 19.101198057250894 10.30571360280529 3.1352212666687898 0 0 0
1883 1 2 -0.192556521739 20.036275466531063 10.237715345016738 2.1812174901568913 0 0 0
1900 1 3 -0.602556521739 18.4299298263796 6.967818300770524 1.7262362261649147 0 0 0
1908 1 5 0.157043478261 18.626177719019037 6.095823685671304 2.3154257097246536 0 0 0
1914 1 5 0.157043478261 18.445104936771646 6.540148896819332 0.6554497371952585 0 0 0
1918 1 5 0.157043478261 17.36076976373721 7.099590883066417 1.6575981977672176 0 0 0
1926 1 6 -0.300956521739 18.39438238301239 9.151968228158747 3.023960284793181 0 0 0
1931 1 6 -0.300956521739 19.94661152982544 8.977785659620073 1.6389429252215737 0 0 0
2032 1 4 0.158343478261 19.63700668589498 6.997716086161186 4.921503784620688 0 0 0
2176 1 6 -0.300956521739 17.652389896892377 7.173484612716884 5.730247681050113 0 0 0
1895 1 4 0.158343478261 20.749155487197374 10.998765205576358 1.8706019692204086 0 0 0
1890 1 4 0.158343478261 18.96380838705026 11.020812970816827 3.8760985359274414 0 0 0
1984 1 2 -0.192556521739 18.915447838344914 6.6728806819188975 5.664085782596407 0 0 0
410 1 7 0.736043478261 21.040694557225393 8.357658990703545 33.7558167141503 0 0 0
595 1 5 0.157043478261 24.575663041653286 9.748268875414588 1.630691335346378 0 0 0
586 1 5 0.157043478261 27.244249306125795 6.148376934393133 2.69855990342569 0 0 0
580 1 3 -0.602556521739 27.00441289118303 6.9084055847713834 1.9856588205382557 0 0 0
581 1 3 -0.602556521739 23.550252828963337 10.052102444167923 1.7778835011747043 0 0 0
585 1 5 0.157043478261 22.85567095207207 9.302274204330839 2.1664571889343476 0 0 0
588 1 5 0.157043478261 23.572180318535317 10.9218582431162 2.400880488291639 0 0 0
596 1 5 0.157043478261 27.645608749274754 7.734668438399236 2.0574217212503685 0 0 0
418 1 1 0.433743478261 27.218481874344185 6.331947212104534 0.6212897429616326 0 0 1
587 1 5 0.157043478261 26.0154105656288 7.295786916077227 2.267067347521419 0 0 0
420 1 1 0.433743478261 23.068237703674775 10.468248868183103 0.5329646021590845 0 0 1
602 1 6 -0.300956521739 26.418908464154985 11.414146563971496 0.8867629024122803 0 0 0
562 1 2 -0.192556521739 26.91467193864157 11.410075439597302 2.1655295841354283 0 0 0
574 1 4 0.158343478261 31.82432279445272 5.745349300086422 3.5465617304654056 0 0 0
600 1 6 -0.300956521739 27.922110290810426 10.04876092751157 0.8212586935623619 0 0 0
560 1 2 -0.192556521739 27.932098678712396 10.523372169316179 2.0982657655875627 0 0 0
1035 1 7 0.736043478261 33.42481267740783 8.347492680000363 4.44409102798067 -1 0 0
557 1 1 0.433743478261 31.419616019743998 8.639950458663167 2.1744660332743706 0 0 0
564 1 2 -0.192556521739 31.37624920825161 6.61787588672441 3.0026244158346014 0 0 0
569 1 2 -0.192556521739 30.387051304988425 6.641399243284351 2.0813196883808613 0 0 0
570 1 4 0.158343478261 28.589691945292813 10.195534391980543 2.881176578203654 0 0 0
582 1 3 -0.602556521739 31.563809379139805 10.086725379457 1.8732133493439898 0 0 0
589 1 5 0.157043478261 32.17907311226675 10.544475380411379 2.6370872614772303 0 0 0
594 1 5 0.157043478261 30.718310339081203 10.648885133829065 1.6394489568741557 0 0 0
597 1 5 0.157043478261 32.18781593590238 10.163688466911914 0.9494605548231514 0 0 0
604 1 6 -0.300956521739 31.916856216447258 7.843429685535149 3.091432575820347 0 0 0
609 1 6 -0.300956521739 30.606672255197843 7.842891133039502 1.529477706675745 0 0 0
644 1 2 -0.192556521739 31.47160710435135 10.600165882911304 5.425495449692241 0 0 0
680 1 4 0.158343478261 30.657688253731646 10.615257404584048 4.681005208102738 0 0 0
788 1 6 -0.300956521739 32.66278399907675 9.873945468934151 5.573127447091651 0 0 0
409 1 7 0.736043478261 29.198319712643244 8.499183515045104 33.80270385107684 0 0 0
2279 19 8 0.4998 7.82121075760424 11.77976853667748 6.47722580766579 0 0 0
1872 1 1 0.433743478261 8.907374620150936 14.932210556298832 2.452212744930536 0 0 0
1880 1 2 -0.192556521739 7.103707341957172 13.707003859319334 2.646283011285302 0 0 0
1881 1 2 -0.192556521739 7.127371689013352 14.562150233598318 3.6593946626130793 0 0 0
1887 1 4 0.158343478261 10.594059364269418 12.68862742763261 3.0780541902271312 0 0 0
1892 1 4 0.158343478261 6.329982710461149 12.935681758746552 2.5519789831088233 0 0 0
1893 1 4 0.158343478261 6.498554383974064 14.614307780191568 4.55115080067452 0 0 0
1902 1 3 -0.602556521739 10.170005134204462 15.426837001287376 2.0042988706696256 0 0 0
1909 1 5 0.157043478261 10.966574805805696 15.717887503182457 2.7165596578560685 0 0 0
1911 1 5 0.157043478261 10.247414299980246 16.243844369757376 1.1933807934029494 0 0 0
1919 1 5 0.157043478261 10.75280247524399 14.721246669931503 1.46832355463766 0 0 0
1928 1 6 -0.300956521739 8.229178344404682 13.962261872232526 1.9120082343200338 0 0 0
1929 1 6 -0.300956521739 8.194516300320444 15.381309106931461 3.4977977239555758 0 0 0
1971 1 2 -0.192556521739 10.750979241304892 14.884709321456118 5.763062475725644 0 0 0
2019 1 4 0.158343478261 10.465535310599332 14.034552502338173 5.159550864034164 0 0 0
2163 1 6 -0.300956521739 10.248443615727748 16.14262726582365 5.812389239331056 0 0 0
1665 1 7 0.736043478261 8.719484247723207 12.942048370739322 0.2626084177725252 0 0 1
1934 1 7 0.736043478261 8.793059108548118 16.83271312653923 4.631928811755199 0 0 0
576 1 4 0.158343478261 22.50254923719902 12.755718113552254 2.383594458792162 0 0 0
559 1 1 0.433743478261 25.27258920592082 14.614629127328445 2.394458068054718 0 0 0
566 1 2 -0.192556521739 23.30192516547347 13.487469966246048 2.5851921575264796 0 0 0
567 1 2 -0.192556521739 23.48629907116019 14.298969811581369 3.648308897849937 0 0 0
572 1 4 0.158343478261 26.776286845273727 12.099120889665272 2.9860645104608077 0 0 0
577 1 4 0.158343478261 22.79075479849438 14.370811007826678 4.438108486288454 0 0 0
584 1 3 -0.602556521739 26.584951447442773 15.1143520023695 1.861760376700326 0 0 0
590 1 5 0.157043478261 26.41841120391834 15.6981866822084 0.9698162484599925 0 0 0
592 1 5 0.157043478261 27.279447488480074 14.278040664921274 1.6024354089353126 0 0 0
598 1 5 0.157043478261 26.991354774743872 15.801017284156458 2.5484486715592674 0 0 0
606 1 6 -0.300956521739 24.40317394455591 13.73120421542518 1.8986343122802798 0 0 0
607 1 6 -0.300956521739 24.673765686731112 14.982025380768807 3.5266366171005212 0 0 0
671 1 4 0.158343478261 27.13726712035237 13.846673976895737 4.979543493701718 0 0 0
611 1 7 0.736043478261 25.38717903710481 16.488589358771023 4.61230169904796 0 0 0
779 1 6 -0.300956521739 26.846829198593493 15.922050293840904 5.671495138262287 0 0 0
411 1 7 0.736043478261 24.963723628576286 12.597046007901115 0.3620800414187372 0 0 1
2291 22 13 0.527 1.9913656460364026 22.447438888137302 33.48310460110986 0 0 0
1273 1 4 0.158343478261 6.751926903898053 21.186661618084155 2.6679559426217097 0 0 0
1871 1 1 0.433743478261 8.558497340818214 18.987169332242043 2.6227084620682732 0 0 0
1879 1 2 -0.192556521739 10.666788552125915 19.979892531935807 2.6263672855090694 0 0 0
1882 1 2 -0.192556521739 10.576894907887935 18.91408496557542 3.454651460984401 0 0 0
1901 1 3 -0.602556521739 7.218982243308125 18.68693408377366 2.261097784919663 0 0 0
1910 1 5 0.157043478261 6.963138434023248 17.716095549802837 1.8414434979752634 0 0 0
1912 1 5 0.157043478261 6.733463226234131 19.422959506463833 1.6340362205050205 0 0 0
1920 1 5 0.157043478261 6.509929045252725 18.762247423636907 3.029180852298421 0 0 0
1927 1 6 -0.300956521739 9.405732952953041 19.94131006556426 2.1147510937061984 0 0 0
1930 1 6 -0.300956521739 9.38297855596667 18.310205371049136 3.4106131567255775 0 0 0
2020 1 4 0.158343478261 6.5731321595389565 19.206182205114338 5.081164644332989 0 0 0
1111 1 7 0.736043478261 8.839944946115436 21.201132930301707 0.4831330625723892 0 0 1
1894 1 4 0.158343478261 11.292940994230817 18.432812073032 4.124169436625262 0 0 0
1891 1 4 0.158343478261 11.50651925399999 20.55323468824707 2.335673145590589 0 0 0
1303 1 6 -0.300956521739 7.44582141508718 22.294456870989226 0.9731081021903651 0 0 0
1263 1 2 -0.192556521739 6.567766495824113 21.979547203664005 1.9684059184846165 0 0 0
2164 1 6 -0.300956521739 7.192629755381304 17.180420655555764 5.75415738018066 0 0 0
1972 1 2 -0.192556521739 6.4246247484563535 18.348954195342866 5.729831889892756 0 0 0
1274 1 4 0.158343478261 15.878220952842268 22.46337974151697 3.527583481160401 0 0 0
1279 1 4 0.158343478261 13.947222450901453 22.428464840680924 1.684189815939238 0 0 0
2221 5 10 0 14.461883983199892 20.476190696047407 0.30628871933742463 0 0 1
2222 5 9 0.1546 13.570265700934346 20.169900972818294 0.241486000570032 0 0 1
2223 5 8 0.4998 13.568206461932839 18.763971342837465 0.4991290054716265 0 0 1
2224 5 11 -0.6544 13.537845824897152 20.19579825121983 0.26372187574705386 0 0 1
109 1 2 -0.192556521739 23.492873014763646 22.036012560231388 2.3128215610158773 0 0 0
117 1 4 0.158343478261 23.834479380061566 21.523579916494793 3.182375020883925 0 0 0
141 1 6 -0.300956521739 23.9604546413672 21.88926627344714 1.0203122104677018 0 0 0
558 1 1 0.433743478261 25.242812788985635 18.67196205100401 2.617184780264663 0 0 0
565 1 2 -0.192556521739 27.33880987163962 19.586922926708198 2.627245327486432 0 0 0
568 1 2 -0.192556521739 27.291484688282754 18.558004857197304 3.488950977509475 0 0 0
583 1 3 -0.602556521739 23.86735677901334 18.392567029227177 2.26912684378057 0 0 0
591 1 5 0.157043478261 23.712567788735335 17.321587348824817 2.440485594515361 0 0 0
593 1 5 0.157043478261 23.694236409203466 18.652910899157867 1.256680110928899 0 0 0
599 1 5 0.157043478261 23.142567245479633 19.008082943197667 2.787532050013647 0 0 0
605 1 6 -0.300956521739 26.059286650116114 19.601939597918864 2.1215901339996353 0 0 0
608 1 6 -0.300956521739 26.021870026690493 18.018238813168644 3.5004457594026843 0 0 0
672 1 4 0.158343478261 23.831567591683022 19.213815070032307 5.013626302310507 0 0 0
636 1 2 -0.192556521739 23.534581436029722 18.451347274210505 5.731897965385492 0 0 0
780 1 6 -0.300956521739 23.924158131441146 17.112730740821192 5.710709775362974 0 0 0
575 1 4 0.158343478261 28.22334936851237 20.212599321589362 2.4312343825988414 0 0 0
4 1 7 0.736043478261 25.532331121489296 20.78749596217369 0.49940326857245176 0 0 1
578 1 4 0.158343478261 28.08018323566901 18.27159025600096 4.100458564250598 0 0 0
118 1 4 0.158343478261 32.039998888386336 22.757008078277394 3.9176924914875957 0 0 0
121 1 4 0.158343478261 30.06836801425189 22.69756427635071 2.0776907451987574 0 0 0
862 1 1 0.433743478261 2.5292017340192765 25.237829979434423 2.2619931126800448 0 0 0
863 1 2 -0.192556521739 2.758589160117329 27.059085518117662 3.3097343799541346 0 0 0
864 1 2 -0.192556521739 3.6809284334185732 27.03402191931869 2.3403162896929093 0 0 0
867 1 3 -0.602556521739 2.062971993195455 23.86678163749186 1.9817932710620176 0 0 0
868 1 5 0.157043478261 1.9508959678898563 23.258560994223505 2.8572817178006082 0 0 0
869 1 5 0.157043478261 2.8934847429968733 23.504836529434176 1.3857463806683468 0 0 0
870 1 5 0.157043478261 1.2272947152631575 23.94091754277411 1.3033605987728094 0 0 0
871 1 6 -0.300956521739 1.9839533893851398 25.97286001599614 3.2207041202102378 0 0 0
872 1 6 -0.300956521739 3.548625126573642 25.853587654189553 1.6937809152825076 0 0 0
896 1 4 0.158343478261 3.2101809964637082 23.644554452507965 5.065715602637301 0 0 0
1271 1 4 0.158343478261 4.6979142824376146 22.88011149269537 2.594584812255978 0 0 0
1106 1 7 0.736043478261 4.676599184926634 25.286469494797515 0.35158008841086186 0 0 1
1301 1 6 -0.300956521739 5.796610828085408 23.701529111293702 0.9335988921790844 0 0 0
866 1 4 0.158343478261 4.51708600556538 27.700003472815524 2.3121538309980503 0 0 0
865 1 4 0.158343478261 2.6690979273994153 27.85781128112571 4.03527428559041 0 0 0
1261 1 2 -0.192556521739 5.480361589176397 22.747207915649028 1.8701598202475405 0 0 0
1295 1 5 0.157043478261 8.161847826409034 26.54643725241307 1.9251672170550183 0 0 0
909 1 5 0.157043478261 2.7148607487043552 26.3322840720576 6.223342360373506 0 0 0
1280 1 3 -0.602556521739 10.560640374399359 23.559427249801825 1.9614430590533827 0 0 0
1281 1 3 -0.602556521739 7.18865189320168 26.919765102131077 1.8382912154511655 0 0 0
1285 1 5 0.157043478261 6.514114004701796 26.16783757707835 2.2468978645952076 0 0 0
1286 1 5 0.157043478261 9.696085334188517 24.27296387649113 2.0293017233723063 0 0 0
1288 1 5 0.157043478261 7.071101643109424 27.76520086304643 2.4520588025236827 0 0 0
1114 1 1 0.433743478261 10.930167681290397 23.159229281672438 0.615394318169276 0 0 1
1296 1 5 0.157043478261 10.261930582062806 22.658638521343953 2.4450231339489528 0 0 0
1116 1 1 0.433743478261 6.842667306497607 27.265134394915304 0.41822072570525015 0 0 1
1287 1 5 0.157043478261 11.43144229235239 23.989740751232116 2.5103272584578415 0 0 0
1262 1 2 -0.192556521739 10.729782752504862 27.95362611650355 2.1764444921258455 0 0 0
1302 1 6 -0.300956521739 10.273122228081915 27.98212013590861 0.8758492240165943 0 0 0
1257 1 1 0.433743478261 14.777454403686399 25.39988154115786 2.714326482345233 0 0 0
1260 1 2 -0.192556521739 11.831430672355621 27.177325662644886 2.1426399161099203 0 0 0
1264 1 2 -0.192556521739 15.256469657777687 23.29836669010263 3.217296683516507 0 0 0
1269 1 2 -0.192556521739 14.270708926879136 23.307499577515447 2.2941887857633847 0 0 0
1270 1 4 0.158343478261 12.41698045625287 26.77351481019483 2.948834243858712 0 0 0
1282 1 3 -0.602556521739 15.261644079812475 26.773504825340567 2.386823928811775 0 0 0
1289 1 5 0.157043478261 14.832208083939916 27.530112692071917 3.014406339994031 0 0 0
1293 1 5 0.157043478261 15.02670229022675 27.075609537799348 1.3697970499318377 0 0 0
1297 1 5 0.157043478261 16.342756824652312 26.80273725549329 2.4782211078007794 0 0 0
1300 1 6 -0.300956521739 11.90172656784326 26.70752192379753 0.8593036129236089 0 0 0
1304 1 6 -0.300956521739 15.4772612641404 24.62276540162863 3.54822837448618 0 0 0
1309 1 6 -0.300956521739 14.102195912823728 24.62914821388594 1.8541394779901867 0 0 0
1383 1 4 0.158343478261 14.396989248974897 26.95151813628055 5.221730854458125 0 0 0
1105 1 7 0.736043478261 12.997151078967699 25.26480640054011 0.35716008055422965 0 0 1
1347 1 2 -0.192556521739 15.104641052150424 27.322298028620843 5.965034694075457 0 0 0
1258 1 1 0.433743478261 19.0996855067987 25.149776097756515 2.406230695538271 0 0 0
1265 1 2 -0.192556521739 19.350692958787533 26.97332367740777 3.536313931121826 0 0 0
1268 1 2 -0.192556521739 20.195459265886363 27.028695010420076 2.4904246682426474 0 0 0
1283 1 3 -0.602556521739 18.48000350401895 23.924717584817685 1.985689535181569 0 0 0
1290 1 5 0.157043478261 17.502889145925344 24.230857822464685 1.556004803674835 0 0 0
1294 1 5 0.157043478261 18.424217802915692 23.3099494746142 2.877690295172034 0 0 0
1298 1 5 0.157043478261 19.1026606289555 23.428018692290628 1.2098732061529685 0 0 0
1305 1 6 -0.300956521739 18.65576722929383 25.785977004466766 3.502824340462065 0 0 0
1308 1 6 -0.300956521739 20.20168275564772 25.81332936938106 1.86644231249524 0 0 0
1314 1 7 0.736043478261 17.051138976195233 25.200059777806214 4.694090893112998 0 0 0
1348 1 2 -0.192556521739 19.04135382320889 23.051285369488188 5.296940250794746 0 0 0
1384 1 4 0.158343478261 19.758716282060902 23.28758911078101 4.554247166659989 0 0 0
1492 1 6 -0.300956521739 17.825627943541345 23.61370974044642 5.571780757858196 0 0 0
1275 1 4 0.158343478261 19.215573678286205 27.740035852739876 4.243151486136522 0 0 0
1278 1 4 0.158343478261 20.95057341794547 27.796835660081943 2.4322755352678795 0 0 0
115 1 4 0.158343478261 22.08070044358273 23.48213478652589 3.1271824928724268 0 0 0
107 1 2 -0.192556521739 22.552462369324182 22.996864652051507 2.2842514153679465 0 0 0
2 1 7 0.736043478261 21.35214726931588 25.064949947124198 0.26171111880578907 0 0 1
139 1 6 -0.300956521739 22.599336963069405 23.562221948897974 1.0438977421343796 0 0 0
122 1 3 -0.602556521739 26.74861127771139 23.608676276126193 2.0054536873749065 0 0 0
123 1 3 -0.602556521739 23.781986311674455 26.773707347303166 1.7097857022621181 0 0 0
127 1 5 0.157043478261 27.507890817089468 24.21454091804558 2.478662326619267 0 0 0
128 1 5 0.157043478261 26.474991999845688 22.74467044480572 2.6223085559585835 0 0 0
129 1 5 0.157043478261 23.74417130120637 27.63886788370494 2.3402558776327087 0 0 0
134 1 5 0.157043478261 24.83286343936198 26.536987840305983 1.6740516049712002 0 0 0
135 1 5 0.157043478261 25.77006600856482 24.13549593988338 1.9116672216364752 0 0 0
7 1 1 0.433743478261 27.299379444315697 23.112484950813208 0.7108299254765457 0 0 1
126 1 5 0.157043478261 23.218623005959536 25.949801742594772 2.0625226701085486 0 0 0
9 1 1 0.433743478261 23.337400136504957 27.19775894618666 0.3705520125667541 0 0 1
8 1 1 0.433743478261 27.550808688208317 27.293975335067106 0.2263643349281886 0 0 1
10 1 1 0.433743478261 23.51062933597831 22.954907996784417 0.2602595297829069 0 0 1
2255 13 8 0.4998 28.21627899916485 23.137661741738793 5.330166961184203 0 0 0
875 1 7 0.736043478261 0.5893738250820935 25.314320001402226 4.3678367556697255 0 0 0
104 1 1 0.433743478261 31.43382436816203 25.58906619549181 2.5262043053786507 0 0 0
106 1 2 -0.192556521739 28.139455675005358 27.349862622449734 2.36877108433616 0 0 0
110 1 2 -0.192556521739 31.62729012969735 23.554854592808272 3.353446383387734 0 0 0
113 1 2 -0.192556521739 30.544848559234772 23.520984496922082 2.515963022386086 0 0 0
114 1 4 0.158343478261 28.645087604841926 27.11849916171321 3.3088792039950734 0 0 0
124 1 3 -0.602556521739 31.715216758736037 26.951761392000687 2.135339136668183 0 0 0
130 1 5 0.157043478261 32.50007566175822 27.39420041480264 2.7420614247824466 0 0 0
133 1 5 0.157043478261 30.843823032449663 27.60162509246537 2.1888491892484474 0 0 0
136 1 5 0.157043478261 32.01531805560106 27.016221207771594 1.08887017339201 0 0 0
138 1 6 -0.300956521739 28.409055417419395 26.819806103223396 1.1400907600890473 0 0 0
142 1 6 -0.300956521739 32.07578124191218 24.843542901664257 3.372977485354423 0 0 0
145 1 6 -0.300956521739 30.49341319761738 24.79893106714998 2.0210110627758335 0 0 0
196 1 4 0.158343478261 30.96443158230919 26.678934284719638 5.436990444971705 0 0 0
1 1 7 0.736043478261 29.4201906416462 25.335661285848133 0.5806269746840094 0 0 1
274 1 6 -0.300956521739 33.179602705210186 26.740445455662908 5.6547421636054915 0 0 0
899 1 4 0.158343478261 4.37363741498209 31.845100026132855 5.797640703788486 0 0 0
900 1 4 0.158343478261 2.253198584223514 30.135296026160116 5.733069807013416 0 0 0
1259 1 1 0.433743478261 9.116956105444732 31.403917777900233 2.2341794033349616 0 0 0
1266 1 2 -0.192556521739 7.0821854588923046 30.60995033105395 2.0816981793493907 0 0 0
1267 1 2 -0.192556521739 7.098411576051706 31.62110531942892 3.0108107752714783 0 0 0
1272 1 4 0.158343478261 10.254963242247017 28.546902547104906 2.965717970308763 0 0 0
1276 1 4 0.158343478261 6.283389735968233 29.978508921761744 1.6967462118669399 0 0 0
1277 1 4 0.158343478261 6.313641395366508 32.00218059795015 3.6983558552551585 0 0 0
1284 1 3 -0.602556521739 10.567944140779057 31.655722602470913 1.983418605994382 0 0 0
1291 1 5 0.157043478261 11.004841383353636 32.22433002289842 2.7783079826085473 0 0 0
1292 1 5 0.157043478261 10.586046549154092 32.17765725911737 1.0065971499178339 0 0 0
1299 1 5 0.157043478261 11.069764672673914 30.703991720447743 1.8297135886642004 0 0 0
1306 1 6 -0.300956521739 8.353771260100046 30.5205378426639 1.589570137312902 0 0 0
1307 1 6 -0.300956521739 8.397617811458215 32.056840191972086 3.106995873163094 0 0 0
1372 1 4 0.158343478261 10.608609876444351 30.781374453583453 4.7682869744458625 0 0 0
1480 1 6 -0.300956521739 10.655686004796392 32.8693856925461 5.406782029409981 0 0 0
1110 1 7 0.736043478261 8.95269939443598 29.28342930638213 0.20948106391441002 0 0 1
2213 3 10 0 14.114941954255691 32.724459768486625 4.248662538210649 0 -1 1
2214 3 9 0.1546 14.14483563289011 32.795914768002426 3.306852268406843 0 -1 1