LAMMPS data file via write_data, version 22 Jul 2025, timestep = 500, units = real

2258 atoms
14 atom types
2536 bonds
12 bond types
4658 angles
16 angle types
7311 dihedrals
15 dihedral types
2112 impropers
7 improper types

-0.027703471779595645 34.051705546975 xlo xhi
-0.03654175411602267 34.060543829311285 ylo yhi
-0.0387880569664496 34.06279013216181 zlo zhi

Masses

1 12.011
2 12.011
3 12.011
4 1.008
5 1.008
6 14.007
7 65.38
8 1.008
9 1.008
10 12.011
11 15.9994
12 15.999
13 1.00784
14 0.0001

Pair Coeffs # lj/cut/coul/long

1 0.086 3.4
2 0.086 3.4
3 0.1094 3.4
4 0.015 2.511
5 0.0157 2.65
6 0.17 3.25
7 0.0125 1.96
8 0 1
9 0.03 2.5
10 0.066 3.5
11 0.17 3.12
12 0.1848 3.165
13 0 1
14 0 1

Bond Coeffs # harmonic

1 346.543 1.49
2 488 1.335
3 540.249 1.35
4 367 1.08
5 440.221 1.37
6 340 1.09
7 78.5 2.011
8 340 1.09
9 320 1.41
10 553 0.945
11 0 0.9572
12 0 0.105

Angle Coeffs # harmonic

1 48.088 109.32
2 71.254 105.27
3 48.68 128.33
4 49.451 125.67
5 76.75 108.65
6 32.477 126.4
7 66.015 123.92
8 49.954 125.68
9 35 109.5
10 75.484 112.16
11 35.24 109.48
12 55 108.6
13 35 109.5
14 33 107.8
15 0 104.52
16 0 52.26

Improper Coeffs # harmonic

1 0 0
2 2 180
3 2 180
4 2 180
5 0 0
6 0 0
7 2 180

Atoms # full

946 1 7 0 0.15720579004137494 4.288392067363507 8.315997821265748 0 0 0
947 1 7 0 4.426251586673665 0.029433504665774837 8.347912534675359 0 0 0
948 1 1 0 2.231937218109846 2.096863201739254 8.234602394233933 0 0 0
953 1 3 0 1.7614252362884864 1.6127145276530301 6.87710956661801 0 0 0
954 1 5 0 2.6105834356445166 1.2039251959997506 6.322021432631935 0 0 0
955 1 5 0 1.3152767572674897 2.4464793943459457 6.32706551216957 0 0 0
956 1 5 0 1.0110403214150872 0.8278206111239731 7.006135820056891 0 0 0
1021 1 1 0 2.239929842872358 8.462558820973609 1.8740565778628049 0 0 0
1026 1 3 0 1.7603033948313618 7.106999028304667 1.3943164772931056 0 0 0
1027 1 5 0 1.3088300158702242 6.563783556498164 2.229586972536668 0 0 0
1028 1 5 0 2.6068153493834973 6.544227952527481 0.9904584294656169 0 0 0
1029 1 5 0 1.0122267245178933 7.238435908973829 0.6074080438460789 0 0 0
1040 1 1 0 0.07688170402121773 6.478025621519275 6.248763716387792 0 0 0
1046 1 2 0 1.8943964738493038 5.369711786861256 6.091607012770679 0 0 0
1048 1 2 0 1.8967493067847523 6.319181098217295 5.144545545655716 0 0 0
1058 1 4 0 2.6633748816965404 4.641738794042867 6.292481246161033 0 0 0
1060 1 4 0 2.6679619394297287 6.519813758157782 4.418861370634433 0 0 0
1094 1 6 0 0.7274171204119486 5.465222688107447 6.790114492570803 0 0 0
1096 1 6 0 0.7312389201300193 7.020360795108123 5.238790584520109 0 0 0
1580 1 3 0 7.240641320133664 1.6203486456369829 1.3933368777080195 0 0 0
1581 1 5 0 6.664906808294781 2.4792738239938172 1.037202906507747 0 0 0
1582 1 5 0 6.715090050496071 1.1274678442414894 2.2164476894033873 0 0 0
1583 1 5 0 7.363753325287931 0.9101679645800997 0.5709701588382726 0 0 0
1598 1 2 0 6.442250638086096 1.7322278514979592 5.133634854555166 0 0 0
1600 1 2 0 5.499671555842326 1.7344996853081731 6.087642901190989 0 0 0
1610 1 4 0 6.6364853498892336 2.499416919115902 4.401919007654501 0 0 0
1612 1 4 0 4.772400790229052 2.504247830147572 6.288027052240724 0 0 0
1646 1 6 0 7.148303081207767 0.5701325414658459 5.2325123675815375 0 0 0
1648 1 6 0 5.601417766834078 0.573424256134748 6.7958327188634176 0 0 0
1874 1 2 0 5.5198683969669675 6.3255208572531565 1.5431365434080588 0 0 0
1876 1 2 0 6.467979911962499 5.37692829481227 1.5444012487969645 0 0 0
1886 1 4 0 4.798686216581628 6.532961655106936 2.3167475324090065 0 0 0
1888 1 4 0 6.6737314082215775 4.65664065490892 2.3192790348404744 0 0 0
1922 1 6 0 5.607615002215051 7.016917580847717 0.37126314992574566 0 0 0
1924 1 6 0 7.160259638941457 5.46176305653466 0.3727094138064984 0 0 0
1575 1 1 0 8.60085135223144 2.0896399881548477 1.870469524089134 0 0 0
1576 1 2 0 10.432356001224498 3.176050011824822 2.016910952765005 0 0 0
1577 1 2 0 10.429609469458947 2.224382814351101 2.9626399531452967 0 0 0
1578 1 4 0 11.210306839372157 3.8929967817553903 1.8100619333324246 0 0 0
1579 1 4 0 11.205037514179041 2.0106625043943596 3.6802696574539717 0 0 0
1584 1 6 0 9.258744265072744 3.0976937645334304 1.327525003574036 0 0 0
1585 1 6 0 9.25483024420525 1.5378038724312684 2.8763379601959307 0 0 0
1587 1 7 0 8.682184661088634 0.007818318553635309 4.0525176241306 0 0 0
1589 1 7 0 12.936794624280866 0.0037472686567476543 8.316795919271092 0 0 0
1592 1 1 0 10.751647706759163 0.0906444841193742 6.242434911406991 0 0 0
1594 1 1 0 15.121997167356433 2.0829545748441505 8.408391765508897 0 0 0
1602 1 2 0 14.024316699697419 2.2321404592459206 6.5842006799398805 0 0 0
1607 1 2 0 14.97105424688334 3.182902858172885 6.585711115748584 0 0 0
1614 1 4 0 13.302593195018483 2.026557855475613 5.810368784355047 0 0 0
1619 1 4 0 15.174746999625539 3.9062108967940836 5.812806918400301 0 0 0
1622 1 3 0 10.272006731962977 1.4459052873776639 6.722141693911465 0 0 0
1627 1 5 0 9.881156019246262 2.01438481202927 5.873894615438807 0 0 0
1630 1 5 0 11.103536560229736 1.9837016173019726 7.187147841562188 0 0 0
1639 1 5 0 9.475453942004146 1.3144173971301976 7.459493653727776 0 0 0
1650 1 6 0 14.114895167605374 1.5360379854477493 7.752268369443106 0 0 0
1655 1 6 0 15.66577786597587 3.093466435509521 7.755308442676985 0 0 0
1877 1 2 0 14.979905619924097 6.8086693073683815 2.9846587952093864 0 0 0
1884 1 2 0 14.031924985524606 6.809544526093358 2.03520629231686 0 0 0
1889 1 4 0 15.182988249520662 6.035319947208099 3.7076919807650555 0 0 0
1896 1 4 0 13.307941028042373 6.037562210092859 1.830586013394444 0 0 0
1897 1 3 0 10.289179406195107 6.938835165894028 1.2621880376344223 0 0 0
1904 1 5 0 11.117899042228755 7.4191257455610335 1.790838647659673 0 0 0
1905 1 5 0 9.922867557435376 6.081294370047128 1.8328277690053334 0 0 0
1916 1 5 0 9.475608003927947 7.659754937400377 1.1436909077826125 0 0 0
1925 1 6 0 15.677129318442296 7.9765898109257005 2.8939827352092538 0 0 0
1932 1 6 0 14.124158117469056 7.977872593368698 1.3396466180076465 0 0 0
2076 1 3 0 15.759696102415692 6.949632063916347 6.738847268497519 0 0 0
2098 1 5 0 15.189835283472505 6.101819531518461 7.128196592945382 0 0 0
2102 1 5 0 15.222172494848431 7.416399581233306 5.9090289649677326 0 0 0
2146 1 5 0 15.894328825194856 7.684766909084715 7.537040239721709 0 0 0
343 1 3 0 24.27196825429902 1.6213905245045086 1.4105451449382262 0 0 0
344 1 5 0 23.62222646634025 2.491646861448273 1.284863078406684 0 0 0
345 1 5 0 23.84445369067237 0.9347757651114871 2.1477389925807704 0 0 0
346 1 5 0 24.36263353616578 1.109428454316145 0.44872410139943597 0 0 0
358 1 2 0 23.473222145564126 1.7114258431084193 5.098578855019083 0 0 0
360 1 2 0 22.52207407140348 1.7171736019431962 6.044090288850944 0 0 0
368 1 4 0 23.659462666829715 2.465383676578482 4.351252403086526 0 0 0
370 1 4 0 21.777611315764773 2.4763874201303304 6.220565696569979 0 0 0
398 1 6 0 24.198648401097728 0.5643394806130739 5.227305669184119 0 0 0
400 1 6 0 22.63821945455331 0.571779286140253 6.775050995944234 0 0 0
561 1 2 0 22.578839050543166 6.3480473151744405 1.5606182740775418 0 0 0
563 1 2 0 23.528269482826033 5.4006218842655365 1.5617774848516044 0 0 0
571 1 4 0 21.86770002606583 6.565444494621615 2.340716105724457 0 0 0
573 1 4 0 23.744803883580634 4.690453972960339 2.342809236352274 0 0 0
601 1 6 0 22.651854194931524 7.025311689021909 0.3795814387648454 0 0 0
603 1 6 0 24.20452705979346 5.470557019488295 0.3799691953438028 0 0 0
1588 1 7 0 17.194035260934392 4.27462462055724 8.325133675793406 0 0 0
1590 1 7 0 21.460336483811318 0.013633270887644794 8.311218457016734 0 0 0
1593 1 1 0 19.266746264079472 2.085009697817483 8.229044748565252 0 0 0
1623 1 3 0 18.783104458626266 1.6073772425878448 6.873954463508257 0 0 0
1632 1 5 0 19.614471958374878 1.1490239444451122 6.3305045306035215 0 0 0
1638 1 5 0 18.384570342338368 2.4559728036100026 6.3105150727934225 0 0 0
1642 1 5 0 17.99134294011937 0.8649598374395124 7.00663533799966 0 0 0
1870 1 1 0 19.278828984385743 8.45817708511259 1.8825682568297557 0 0 0
1900 1 3 0 18.802207964341637 7.102193177403277 1.4007202431732204 0 0 0
1908 1 5 0 18.276667714103265 6.589864144531984 2.2119366637937232 0 0 0
1914 1 5 0 19.6628909045271 6.5110173557489714 1.0756752749867549 0 0 0
1918 1 5 0 18.12073801769837 7.230342467323357 0.5549239626838284 0 0 0
1956 1 1 0 17.113455139039715 6.467514529004633 6.256936355249131 0 0 0
1980 1 2 0 18.931855424514037 5.361108278828953 6.09995152032385 0 0 0
1984 1 2 0 18.933505274291218 6.310391137203508 5.152679662284168 0 0 0
2028 1 4 0 19.701534853674115 4.633830471696186 6.3005594841317665 0 0 0
2032 1 4 0 19.704798678885044 6.511885197230398 4.427262978447926 0 0 0
2172 1 6 0 17.764212363286543 5.45450382273335 6.7979141097221225 0 0 0
2176 1 6 0 17.76794426256759 7.011340001726099 5.247596604539592 0 0 0
338 1 1 0 25.638458114693485 2.084290896929891 1.8753417072450889 0 0 0
339 1 2 0 27.47197468367321 3.169049568616642 2.011634624014016 0 0 0
340 1 2 0 27.47511979023042 2.2153119347846997 2.9551335577571165 0 0 0
341 1 4 0 28.248362037461327 3.886883591058415 1.8019611021533872 0 0 0
342 1 4 0 28.254394752991196 2.0010425602484454 3.668367918153422 0 0 0
347 1 6 0 26.294714790543832 3.0914527841579824 1.3282055006318623 0 0 0
348 1 6 0 26.30038678636351 1.528579757120893 2.8750574547793692 0 0 0
350 1 7 0 25.73980959212405 0.0002172345826807337 4.0615826081202355 0 0 0
351 1 7 0 29.98815481306612 0.03286188969291781 8.323282684102201 0 0 0
353 1 1 0 27.808003163335137 0.11178241874485748 6.249958206280064 0 0 0
354 1 1 0 32.161826952119256 2.1113257085221173 8.406391665831249 0 0 0
361 1 2 0 31.067032092193514 2.251921028996493 6.579852964014626 0 0 0
366 1 2 0 32.01513799149169 3.2014467599047394 6.577389391530553 0 0 0
371 1 4 0 30.34537126285275 2.043238861081858 5.806809115653747 0 0 0
376 1 4 0 32.22076589068277 3.921009070598324 5.801506990927671 0 0 0
378 1 3 0 27.313593938892637 1.4600372246319413 6.734139569210294 0 0 0
382 1 5 0 26.904788141349286 2.021966551904766 5.889806681831813 0 0 0
385 1 5 0 28.14248523172665 2.010655257785545 7.188776922170586 0 0 0
392 1 5 0 26.52797548287832 1.3175371547078911 7.481445476925674 0 0 0
401 1 6 0 31.157143641186263 1.5613144539895654 7.7512889347145935 0 0 0
406 1 6 0 32.70904546007884 3.115341411748941 7.74773398830613 0 0 0
564 1 2 0 32.02363904627465 6.811238271505562 2.9777170752332234 0 0 0
569 1 2 0 31.073996101203832 6.810060481454513 2.029924974347845 0 0 0
574 1 4 0 32.22907232354158 6.038694173799373 3.7009071573470553 0 0 0
579 1 4 0 30.351021117699023 6.036776926093531 1.8266226737244156 0 0 0
580 1 3 0 27.320054021582973 6.94645845173187 1.2511510555238194 0 0 0
586 1 5 0 28.15339907364968 7.406565808098987 1.7903363722989725 0 0 0
587 1 5 0 26.92721889895588 6.097045541193452 1.8165623381834581 0 0 0
596 1 5 0 26.52550569795417 7.686869042458414 1.1235464778263984 0 0 0
604 1 6 0 32.71847874643763 7.980441566215495 2.8857569124054407 0 0 0
609 1 6 0 31.163508855286533 7.978053863488869 1.3335587109994538 0 0 0
714 1 3 0 32.802941498293116 6.961298453462812 6.730643590568174 0 0 0
731 1 5 0 32.24534147622405 6.120739957988142 7.152379862841185 0 0 0
733 1 5 0 32.25220401432045 7.397019211060822 5.892673674249073 0 0 0
767 1 5 0 32.93873202565401 7.722936945343527 7.503588150581195 0 0 0
2227 5 8 0.418 27.001098165551344 7.767317825723865 7.187773835486894 0 0 0
2228 5 11 -0.6830000000000001 26.352403463302572 7.993806092427807 6.522274821748822 0 0 0
1022 1 2 0 2.3942232896005424 10.283838593345575 2.97624842851251 0 0 0
1023 1 2 0 3.3432131468914683 10.283227838899947 2.0279358662925913 0 0 0
1024 1 4 0 2.190806313976911 11.056477045975651 3.6999093151384144 0 0 0
1025 1 4 0 4.0675884515093745 11.055213482192555 1.8245189565019386 0 0 0
1030 1 6 0 1.6961000118980702 9.116414435386579 2.884444579496181 0 0 0
1031 1 6 0 3.2510131143120287 9.115346945340514 1.3305372406884832 0 0 0
1032 1 7 0 0.16642325455745297 12.809511817990083 8.32669034133105 0 0 0
1035 1 7 0 0.16712042320096077 8.550045986184424 4.063116615630194 0 0 0
1037 1 1 0 0.2533891240658739 10.62209903357713 6.252462891688148 0 0 0
1043 1 1 0 2.2378493395718633 15.000247475025827 8.412615557434144 0 0 0
1051 1 2 0 3.3332064593920325 14.85386496642257 6.586572239277359 0 0 0
1054 1 2 0 2.385160468307522 13.904491521134085 6.586991504512841 0 0 0
1063 1 4 0 4.0536056263213815 15.060625825725923 5.811768347310433 0 0 0
1066 1 4 0 2.1791774619330724 13.183051174674706 5.813028678722701 0 0 0
1069 1 3 0 1.611044341001252 10.14632118724964 6.729306716207718 0 0 0
1076 1 5 0 2.1728818449180167 10.994189649279484 7.131952451470603 0 0 0
1077 1 5 0 2.153695891918239 9.695485087550884 5.893861206108216 0 0 0
1088 1 5 0 1.4831660116669907 9.398777041991377 7.517081805261882 0 0 0
1099 1 6 0 3.2449097426495936 15.54729390863637 7.75687055998539 0 0 0
1102 1 6 0 1.6931737353197225 13.991319568756612 7.757804566933685 0 0 0
1880 1 2 0 6.951214144912974 13.902283331571335 2.0219957633888725 0 0 0
1881 1 2 0 6.952270618965548 14.84858616499921 2.9730495493828766 0 0 0
1892 1 4 0 6.178114765397346 13.179762880440034 1.8167311946687563 0 0 0
1893 1 4 0 6.179458698722866 15.052052413949252 3.6965606851191777 0 0 0
1898 1 3 0 7.093813171056744 10.146852164676659 1.246381920437108 0 0 0
1903 1 5 0 6.262057062417647 9.682707509132374 1.7834222639712665 0 0 0
1906 1 5 0 7.4813928340790365 10.998661966249772 1.8126463907136272 0 0 0
1915 1 5 0 7.893103371584127 9.41139296518889 1.120533099532632 0 0 0
1928 1 6 0 8.119726121169286 13.992674289608024 1.3268851325238782 0 0 0
1929 1 6 0 8.121457222328196 15.543848950630755 2.883020275868496 0 0 0
1948 1 1 0 6.6143616918892505 16.98628837099546 6.250650086761804 0 0 0
2068 1 3 0 7.096184016711643 15.63370086744072 6.7360008432607374 0 0 0
2090 1 5 0 7.521862539640763 15.076620001409347 5.897094452642333 0 0 0
2110 1 5 0 6.257002137285911 15.082061875122987 7.168175123273396 0 0 0
2138 1 5 0 7.865512729796228 15.77057091989397 7.500910460072468 0 0 0
2249 9 13 0.527 2.979572819551522 16.77369306927492 33.51441100460514 0 0 0
1869 1 1 0 15.133958686299254 8.631027733402618 1.8843769701552981 0 0 0
1872 1 1 0 8.774178539658552 15.00234439030387 1.871615705648181 0 0 0
1873 1 2 0 11.864789906596181 10.783833488699997 1.5401508269249768 0 0 0
1875 1 2 0 10.917733112392604 11.733457593110174 1.5370682261052895 0 0 0
1885 1 4 0 12.589650757890498 10.584215823742015 2.3120199503384553 0 0 0
1887 1 4 0 10.716664801422416 12.46091720920702 2.306241470322865 0 0 0
1899 1 3 0 15.613693020234805 9.986468450599427 1.405623021604969 0 0 0
1902 1 3 0 10.129636874127891 15.483548551540963 1.3933575278470942 0 0 0
1907 1 5 0 16.03842905301222 10.540718481822125 2.2478267495861037 0 0 0
1909 1 5 0 10.636619223539657 14.676452187455784 0.8575606853754859 0 0 0
1911 1 5 0 10.726286662169649 15.797581726038427 2.2542413305949163 0 0 0
1913 1 5 0 14.774169874910873 10.53865873180415 0.9744742151295294 0 0 0
1917 1 5 0 16.38438026894208 9.856338267292688 0.6407724362829995 0 0 0
1919 1 5 0 10.002894613536263 16.337001900856517 0.7224708556527145 0 0 0
1921 1 6 0 11.771624833705536 10.081965587725906 0.37468116100612353 0 0 0
1923 1 6 0 10.218296221178589 11.636260449293873 0.37039363281316884 0 0 0
1964 1 1 0 15.13696260131661 14.999824630282118 8.242172316507608 0 0 0
1971 1 2 0 10.904992068762104 15.327160487406196 5.16830976929971 0 0 0
1977 1 2 0 15.468367486609447 11.714507746465847 6.111091856724335 0 0 0
1983 1 2 0 15.468112546415602 10.765565831324512 5.163247434509124 0 0 0
1989 1 2 0 11.853609487619549 15.330109081300028 6.116520862420979 0 0 0
2019 1 4 0 10.698318325984204 14.550292538124664 4.450423502091963 0 0 0
2025 1 4 0 14.694663630373173 12.436733064602873 6.3156128529923246 0 0 0
2031 1 4 0 14.694172443523314 10.559907267024423 4.441865752314388 0 0 0
2037 1 4 0 12.573700060144033 14.555722765444846 6.325864763350989 0 0 0
2084 1 3 0 15.612661684545202 15.473773156515168 6.8837421163227965 0 0 0
2118 1 5 0 14.775290152446775 15.91813214862572 6.339065773026227 0 0 0
2130 1 5 0 16.019556892769486 14.626832828065098 6.324968745962782 0 0 0
2154 1 5 0 16.396012176172903 16.226339078447424 7.0092304339596225 0 0 0
2163 1 6 0 10.214614991425936 16.50005997937149 5.250060741823907 0 0 0
2169 1 6 0 16.639294669411797 11.62700389481395 6.804111021611925 0 0 0
2175 1 6 0 16.638335288847614 10.071641747997589 5.252074807773368 0 0 0
2181 1 6 0 11.767723383829265 16.504197126631084 6.804182103684624 0 0 0
566 1 2 0 23.98505569565946 13.906179368485258 2.0209547131476557 0 0 0
567 1 2 0 23.985725639953838 14.854550270833013 2.9700283429323355 0 0 0
576 1 4 0 23.208858906013567 13.188013645158671 1.8119275268392576 0 0 0
577 1 4 0 23.209494675189944 15.06410443588058 3.688092154330144 0 0 0
581 1 3 0 24.12868173521491 10.15013430942621 1.2567274002812632 0 0 0
585 1 5 0 23.294127702050613 9.695001602503515 1.79713478681582 0 0 0
588 1 5 0 24.52466569051471 11.000586086039021 1.819327955317421 0 0 0
595 1 5 0 24.921323850297544 9.407090959481847 1.1323876459653552 0 0 0
606 1 6 0 25.1581871251035 13.989313466375496 1.3324164034682766 0 0 0
607 1 6 0 25.15907145553324 15.543321645357933 2.885547188429312 0 0 0
620 1 1 0 23.65607343731381 16.98685719957099 6.25233796872732 0 0 0
708 1 3 0 24.136224116765117 15.632023030296084 6.732985505018571 0 0 0
724 1 5 0 24.551641122654754 15.073308205934703 5.890037877111487 0 0 0
740 1 5 0 23.298664447054048 15.083990005145312 7.172857234300099 0 0 0
760 1 5 0 24.913408584427152 15.765173261385353 7.4906845584418775 0 0 0
1878 1 2 0 19.431206028815623 10.278288085296667 2.987099852234199 0 0 0
1883 1 2 0 20.37954153575885 10.280297396542055 2.0381193001629287 0 0 0
1890 1 4 0 19.227229674290466 11.049594719554817 3.7119958378398703 0 0 0
1895 1 4 0 21.102851103120557 11.05345249403567 1.8353071384092514 0 0 0
1926 1 6 0 18.734304920769873 9.110324591798046 2.894041392012346 0 0 0
1931 1 6 0 20.288109254626256 9.113355946134975 1.3389413456003116 0 0 0
1937 1 7 0 17.208394193569518 12.808418234118067 8.330794196551775 0 0 0
1940 1 7 0 17.20526781699895 8.54291229147978 4.07271641131803 0 0 0
1953 1 1 0 17.293418335152126 10.617776873965354 6.2597770075592924 0 0 0
1961 1 1 0 19.28188350708388 14.997612494688894 8.416301324073245 0 0 0
1997 1 2 0 20.376067102669946 14.85129228479063 6.5896291885269 0 0 0
2011 1 2 0 19.42761698670579 13.902285390397727 6.590384132856995 0 0 0
2045 1 4 0 21.096026562791554 15.05801686146067 5.81439634865747 0 0 0
2059 1 4 0 19.22094289896504 13.18109881893758 5.816367175085141 0 0 0
2073 1 3 0 18.650765841813907 10.141383267696302 6.736894243688326 0 0 0
2099 1 5 0 19.217174850386556 10.99108516433407 7.1290924525076065 0 0 0
2101 1 5 0 19.18898462928395 9.680009566713103 5.904326380589253 0 0 0
2147 1 5 0 18.5225932764374 9.402503233255485 7.532814842540417 0 0 0
2189 1 6 0 20.288763743723823 15.544465562973297 7.76018181772012 0 0 0
2203 1 6 0 18.736177693381176 13.989190731532425 7.761518883940835 0 0 0
2230 5 9 0.04 25.816293922282615 9.813914422312735 7.364387929528841 0 0 0
557 1 1 0 32.172547863285 8.633561777935855 1.8767000512766572 0 0 0
559 1 1 0 25.815379350113666 14.99477973409159 1.8799169357311314 0 0 0
560 1 2 0 28.885975959446554 10.757222820833938 1.5518242026415043 0 0 0
562 1 2 0 27.93858090586321 11.70657275956136 1.5523855297237847 0 0 0
570 1 4 0 29.6034345288038 10.546949039255084 2.327766458630217 0 0 0
572 1 4 0 27.730359027197366 12.424112646629403 2.3287913337114174 0 0 0
582 1 3 0 32.64814139870195 9.990290723592999 1.3971757139491114 0 0 0
584 1 3 0 27.176362189840237 15.464980795701912 1.4071386209964907 0 0 0
589 1 5 0 33.10640938593846 10.531504192481718 2.2302944488388508 0 0 0
590 1 5 0 27.742932907663974 14.611750470743821 1.0245850613965617 0 0 0
592 1 5 0 27.711204715894166 15.93137402007327 2.2398857824549165 0 0 0
594 1 5 0 31.79896350863449 10.55419283694149 1.0017487386219057 0 0 0
597 1 5 0 33.38991728984326 9.862492369212305 0.6040583896138626 0 0 0
598 1 5 0 27.055600269413915 16.198590356377125 0.6050781055079663 0 0 0
600 1 6 0 28.80263189697195 10.070112496022283 0.3768812844323585 0 0 0
602 1 6 0 27.25116782511265 11.625845621852305 0.377399497184555 0 0 0
628 1 1 0 32.175697227220574 15.001029832251302 8.239589778469236 0 0 0
635 1 2 0 27.95363312356784 15.33469857713943 5.155358650779052 0 0 0
641 1 2 0 32.506531945637235 11.716887212870772 6.105124739524576 0 0 0
644 1 2 0 32.50784148749591 10.770038069255182 5.155230557797181 0 0 0
649 1 2 0 28.901547749860853 15.336986291185903 6.104205878373258 0 0 0
671 1 4 0 27.75197672720685 14.56121003198081 4.432300625777593 0 0 0
677 1 4 0 31.73191458027321 12.437882910727666 6.310502348624065 0 0 0
680 1 4 0 31.734295870514163 10.564742169724962 4.433273011232266 0 0 0
685 1 4 0 29.62641525113806 14.565599789977794 6.308221212031672 0 0 0
718 1 3 0 32.65335982903779 15.475773810607294 6.882086470580486 0 0 0
746 1 5 0 31.82547109423964 15.951857682521602 6.349822611757054 0 0 0
755 1 5 0 33.028646104031516 14.622915671375232 6.310540436818627 0 0 0
772 1 5 0 33.46142312203939 16.201302795144834 7.008498900307601 0 0 0
779 1 6 0 27.255896240448344 16.502737115749447 5.244784713447078 0 0 0
785 1 6 0 33.67740312705649 11.629649391276176 6.798338209966175 0 0 0
788 1 6 0 33.67865397032486 10.077036599355083 5.243564171797287 0 0 0
793 1 6 0 28.809007827581876 16.506401335792184 6.799110065175509 0 0 0
2229 5 10 0.145 26.179803249181614 9.401999195194962 6.428400788940216 0 0 0
2231 5 9 0.04 27.10708121444369 9.879048579471105 6.128131659836426 0 0 0
2232 5 9 0.04 25.43707677371122 9.57457779577346 5.657010165383156 0 0 0
862 1 1 0 2.2419542039524814 25.50101062617885 1.865814366641254 0 0 0
867 1 3 0 1.7543730933265012 24.1544587470658 1.3671981128856356 0 0 0
868 1 5 0 1.2283083319867811 23.63402327275156 2.1730816920700677 0 0 0
869 1 5 0 2.608907388126636 23.56058146181741 1.0302234209982493 0 0 0
870 1 5 0 1.0700501646195677 24.29721747360135 0.5266491562192438 0 0 0
879 1 1 0 0.08039455599811109 23.527073033044115 6.242151342171027 0 0 0
884 1 2 0 1.9014195521732493 22.42453456257255 6.0854271576923695 0 0 0
886 1 2 0 1.8979300403996238 23.36939542959657 5.13374855415253 0 0 0
894 1 4 0 2.6732688748907463 21.69983094174767 6.286954396718964 0 0 0
896 1 4 0 2.6671195893572324 23.570718308963023 4.40608743016438 0 0 0
924 1 6 0 0.7348691895664823 22.517570179855078 6.7852569680477375 0 0 0
926 1 6 0 0.7306765977292393 24.067444211650912 5.228839874994087 0 0 0
1033 1 7 0 0.1684754746138317 21.342386676248275 8.315754077179529 0 0 0
1036 1 7 0 4.424827867022238 17.07601144145089 8.32265133487862 0 0 0
1044 1 1 0 2.237865376360849 19.150584536841745 8.232101343242277 0 0 0
1074 1 3 0 1.7573483412845092 18.670435474083163 6.876830647487062 0 0 0
1082 1 5 0 2.5849847585943837 18.19256661045029 6.344565663261103 0 0 0
1084 1 5 0 1.379823708644065 19.521572451919734 6.303145015832085 0 0 0
1092 1 5 0 0.9498033610219768 17.945023870395616 7.008546450912031 0 0 0
1261 1 2 0 5.527970139041056 23.387069667443498 1.5539898828969514 0 0 0
1263 1 2 0 6.474361072812172 22.43691251683709 1.5577605226916915 0 0 0
1271 1 4 0 4.811162309714529 23.601972176987015 2.3296063168667747 0 0 0
1273 1 4 0 6.683348690343695 21.722203308901967 2.3368825968174276 0 0 0
1301 1 6 0 5.6111252721194305 24.068784026189345 0.37609381993728486 0 0 0
1303 1 6 0 7.160336948005719 22.51234976096847 0.3819883648994115 0 0 0
1901 1 3 0 7.248453654988283 18.67193707453024 1.4051334137452325 0 0 0
1910 1 5 0 6.659728600287092 19.532603907528927 1.0756654017302474 0 0 0
1912 1 5 0 6.73506626858772 18.152093506112 2.2192795433993133 0 0 0
1920 1 5 0 7.373303598185927 17.985415140819775 0.5633089456008165 0 0 0
1972 1 2 0 6.456855320369059 18.80211623005382 5.139948425928991 0 0 0
1992 1 2 0 5.507672762516622 18.803932994948624 6.087363690000291 0 0 0
2020 1 4 0 6.657633312426542 19.570621956375135 4.41141427902305 0 0 0
2040 1 4 0 4.78005897318153 19.574087345968277 6.285061142501916 0 0 0
2164 1 6 0 7.1579040634171065 17.636826335790996 5.238682811449266 0 0 0
2184 1 6 0 5.602574262115358 17.63978606210692 6.790907674536417 0 0 0
1264 1 2 0 15.014864612629296 23.824341631425504 2.947654222220278 0 0 0
1269 1 2 0 14.067618512246368 23.82237281387231 1.9975163032166119 0 0 0
1274 1 4 0 15.227561111562512 23.04644411255528 3.6629727580831877 0 0 0
1279 1 4 0 13.353846413432246 23.04310799036758 1.7848268539142227 0 0 0
1280 1 3 0 10.335554292147737 23.948094578024534 1.2916547921055777 0 0 0
1286 1 5 0 11.208635050378382 24.314510829347128 1.8385998577945053 0 0 0
1287 1 5 0 9.888516079842132 23.099949057842082 1.8165823389888682 0 0 0
1296 1 5 0 9.598363787383041 24.75216375536716 1.2214217270363248 0 0 0
1304 1 6 0 15.695501860837187 25.003041831017665 2.870737825830543 0 0 0
1309 1 6 0 14.142120595827468 25.00059818708789 1.3163474842151992 0 0 0
1416 1 3 0 15.759124262875634 23.99018890758765 6.727515062621339 0 0 0
1432 1 5 0 15.2469155095359 23.17570937779464 7.246750799830181 0 0 0
1436 1 5 0 15.171454695239452 24.31628165035735 5.865517632400907 0 0 0
1468 1 5 0 15.880912159950281 24.833096234454075 7.413048893688214 0 0 0
1871 1 1 0 8.606925586409181 19.145996576034165 1.8831323128531912 0 0 0
1879 1 2 0 10.434837350420649 20.238550971633877 2.029313391724326 0 0 0
1882 1 2 0 10.435670303839009 19.286567333833602 2.9747080597808764 0 0 0
1891 1 4 0 11.210900606746124 20.95748664036126 1.8218503523603085 0 0 0
1894 1 4 0 11.212053919038935 19.07555380036193 3.692093263532221 0 0 0
1927 1 6 0 9.261098469247939 20.15600873828543 1.3400878297170082 0 0 0
1930 1 6 0 9.262908032866392 18.596509115218986 2.889087975260512 0 0 0
1934 1 7 0 8.690185356933366 17.06845302617546 4.0655206813152125 0 0 0
1943 1 7 0 12.948800666715227 17.07542351093694 8.329292073241438 0 0 0
1947 1 1 0 10.760209136970525 17.157991527298307 6.255964728437619 0 0 0
1963 1 1 0 15.137449549740559 19.147026862472895 8.412798440416195 0 0 0
1999 1 2 0 14.030714732414147 19.305794951154937 6.594961188084199 0 0 0
2009 1 2 0 14.979471201272782 20.254479449058504 6.595196326524973 0 0 0
2047 1 4 0 13.304224113769637 19.105253382193045 5.824226804383378 0 0 0
2057 1 4 0 15.18047033374302 20.980750095797795 5.82428244968815 0 0 0
2067 1 3 0 10.284510377907754 18.517826903673292 6.726806115730094 0 0 0
2089 1 5 0 9.893562776881996 19.081215813257078 5.875323295703703 0 0 0
2111 1 5 0 11.117750437754802 19.057078189314122 7.1871138506658685 0 0 0
2137 1 5 0 9.48819423541739 18.39339302554611 7.465789685201196 0 0 0
2191 1 6 0 14.125735795790497 18.605250607692337 7.760145835557893 0 0 0
2201 1 6 0 15.680208590829757 20.158288995242227 7.76070704026923 0 0 0
2238 6 9 0.04 13.43607655570036 21.179151406065497 33.69422189622772 0 0 0
107 1 2 0 22.63159247459147 23.417447145206424 1.5821950706952639 0 0 0
109 1 2 0 23.590192194248 22.479503865528034 1.5783337984624615 0 0 0
115 1 4 0 21.944337656492994 23.649637114187374 2.379426592817955 0 0 0
117 1 4 0 23.838640777937812 21.79285013872651 2.3706695515982212 0 0 0
139 1 6 0 22.65964176678486 24.063960178731914 0.3824217040875154 0 0 0
141 1 6 0 24.22877860069377 22.522600294839226 0.37603919994092666 0 0 0
583 1 3 0 24.284032371167832 18.690677199807645 1.4037654750884914 0 0 0
591 1 5 0 23.70793648916434 19.55812932686228 1.0696196927784831 0 0 0
593 1 5 0 23.765410347565755 18.184977744551414 2.223475901418328 0 0 0
599 1 5 0 24.39571223361718 17.995618435092986 0.5669783001516858 0 0 0
636 1 2 0 23.500361012746097 18.80646677895812 5.147698529739039 0 0 0
652 1 2 0 22.552851166068564 18.80717683153859 6.096801235003661 0 0 0
672 1 4 0 23.70154027551781 19.577081305780087 4.421482435177093 0 0 0
688 1 4 0 21.82739549979361 19.578310381461222 6.2985297919903545 0 0 0
780 1 6 0 24.198960976390193 17.639231909421238 5.241121611843062 0 0 0
796 1 6 0 22.64597371310326 17.64025691505876 6.795843710128435 0 0 0
1258 1 1 0 19.286109709192203 25.494761377207045 1.905311654061389 0 0 0
1283 1 3 0 18.79141500623276 24.14838372446082 1.4147516816008872 0 0 0
1290 1 5 0 18.28140106626714 23.627979505966657 2.2303324947830117 0 0 0
1294 1 5 0 19.6423666470338 23.556913167430405 1.0648253690685323 0 0 0
1298 1 5 0 18.090277920901155 24.29144765433306 0.5879347741533261 0 0 0
1326 1 1 0 17.119487697349523 23.515636301279248 6.256497262506592 0 0 0
1344 1 2 0 18.94893976133173 22.424593660747146 6.1137774843497175 0 0 0
1348 1 2 0 18.947347782126478 23.37050060961819 5.163137322826012 0 0 0
1380 1 4 0 19.723824519990767 21.704986057896384 6.321800949551089 0 0 0
1384 1 4 0 19.720726433033384 23.577097055554773 4.441473148439803 0 0 0
1488 1 6 0 17.776568679470326 22.51039814802681 6.804483866455682 0 0 0
1492 1 6 0 17.774430172919658 24.060341090641824 5.249013632259885 0 0 0
1938 1 7 0 17.209508636424157 21.33371371339389 8.330651380529815 0 0 0
1944 1 7 0 21.46890529301121 17.073112329772247 8.326482988026795 0 0 0
1962 1 1 0 19.28079531848237 19.145381110554116 8.241543831835985 0 0 0
2082 1 3 0 18.80014222553432 18.667211149714223 6.885714773782292 0 0 0
2120 1 5 0 19.63388626451308 18.21205102569638 6.343209429878519 0 0 0
2132 1 5 0 18.39997605082419 19.51503754515394 6.3223172577473745 0 0 0
2156 1 5 0 18.0101052815688 17.922402781976768 7.016979301713099 0 0 0
110 1 2 0 32.01738883747044 23.867025170505727 2.9587985768326543 0 0 0
113 1 2 0 31.07192545357328 23.870266857824692 2.006912009263781 0 0 0
118 1 4 0 32.21569661644182 23.093955749577308 3.6834351790733306 0 0 0
121 1 4 0 30.345800306414148 23.100866144799774 1.8005323168696556 0 0 0
122 1 3 0 27.360284570388362 23.989975723659093 1.2424932960014037 0 0 0
127 1 5 0 28.145955946949464 24.58765229505756 1.7147151786254207 0 0 0
128 1 5 0 27.121881636947602 23.12230131219819 1.8630680922144325 0 0 0
135 1 5 0 26.45995473673174 24.601524127199188 1.1315156486514886 0 0 0
142 1 6 0 32.71865868107198 25.03258795101824 2.8686815530721983 0 0 0