LAMMPS data file via write_data, version 22 Jul 2025, timestep = 5000, units = real

2368 atoms
14 atom types
2808 bonds
12 bond types
4728 angles
16 angle types
3840 dihedrals
12 dihedral types
1152 impropers
4 improper types

0 34.02400207519531 xlo xhi
0 34.02400207519531 ylo yhi
0 34.02400207519531 zlo zhi

Masses

1 12.011
2 12.011
3 12.011
4 1.008
5 1.008
6 14.007
7 65.38
8 1.008
9 15.035
10 15.9994
11 0.0001
12 15.999
13 1.00784
14 0.0001

Pair Coeffs # lj/cut/coul/long

1 0.086 3.4
2 0.086 3.4
3 0.1094 3.4
4 0.015 2.511
5 0.0157 2.65
6 0.17 3.25
7 0.0125 1.96
8 0.2195 3.6499
9 0.1791 3.1655
10 0 1
11 0.2108 3.637
12 0.1848 3.165
13 0 1
14 0 1

Bond Coeffs # harmonic

1 346.543 1.49
2 488 1.335
3 540.249 1.35
4 367 1.08
5 440.221 1.37
6 340 1.09
7 78.5 2.011
8 0 0.945
9 0 1.43
10 0 0.037
11 0 0.105
12 0 0.9572

Angle Coeffs # harmonic

1 48.088 109.32
2 71.254 105.27
3 48.68 128.33
4 49.451 125.67
5 76.75 108.65
6 32.477 126.4
7 66.015 123.92
8 49.954 125.68
9 35 109.5
10 75.484 112.16
11 35.24 109.48
12 0 108.5
13 0 127.53
14 0 123.97
15 0 52.26
16 0 104.52

Dihedral Coeffs # charmm

1 2.325 2 180 0
2 2.325 2 180 0
3 2.325 2 180 0
4 2.325 2 180 0
5 5 2 180 0
6 5 2 180 0
7 5 2 180 0
8 5 2 180 0
9 5.15 2 180 0
10 5.15 2 180 0
11 5.15 2 180 0
12 0 0 0 0

Improper Coeffs # harmonic

1 2 180
2 2 180
3 2 180
4 0 0

Atoms # full

1046 1 2 -0.192556521739 1.6590390354557416 5.177072453459185 6.285426314451046 0 0 0
1924 1 6 -0.300956521739 6.59542283546813 5.427828189718399 0.5441871678500146 0 0 0
1575 1 1 0.433743478261 8.30707843707653 2.167277691416269 2.113676034397198 0 0 0
1576 1 2 -0.192556521739 10.167840834008361 3.271615893790729 2.0319468917100583 0 0 0
1577 1 2 -0.192556521739 10.285514118738158 2.332514750871411 2.9713901354270176 0 0 0
1580 1 3 -0.602556521739 6.963965916544013 1.5894181957728009 1.67540144059675 0 0 0
1581 1 5 0.157043478261 7.160764673095194 0.8226651424367392 0.9352954319628791 0 0 0
1582 1 5 0.157043478261 6.363859989328432 2.342892195691633 1.2031122346020482 0 0 0
1583 1 5 0.157043478261 6.408117820529171 1.1103165275365456 2.488511386767764 0 0 0
1584 1 6 -0.300956521739 8.936248465891406 3.195026628984844 1.499921726492305 0 0 0
1585 1 6 -0.300956521739 9.132141867335074 1.6099876150348487 3.0291109225575137 0 0 0
1598 1 2 -0.192556521739 6.211430140259311 1.7348120982691966 5.462488457666431 0 0 0
1610 1 4 0.158343478261 6.1985933346448565 2.600041336414585 4.802271802948724 0 0 0
1646 1 6 -0.300956521739 6.9985450277126615 0.6405236652656496 5.424698947547386 0 0 0
1876 1 2 -0.192556521739 5.928509742642099 5.368307558454679 1.7465802825829453 0 0 0
1888 1 4 0.158343478261 6.213551445852643 4.689774749402811 2.5638686339139207 0 0 0
1578 1 4 0.158343478261 10.931896428004036 4.007037764571125 1.8275831684370616 0 0 0
1579 1 4 0.158343478261 11.223522726147536 2.228953614654563 3.5192410398066905 0 0 0
2196 1 6 -0.300956521739 9.106717821903569 14.046856600648503 15.434724670832049 0 0 0
2222 5 9 0.1546 0.5840621546043702 15.269848225739043 13.478204899777467 0 0 0
1032 1 7 0.736043478261 0.15004374554873365 12.35589651493242 8.62700762526083 0 0 0
2220 4 11 -0.6544 13.309656552217788 1.1089210978189747 1.6034544715423424 0 0 1
2052 1 4 0.158343478261 10.930396863807523 13.110694691481443 14.823626498560547 0 0 0
1969 1 2 -0.192556521739 5.980637609218693 15.35512079428467 12.119499930648702 0 0 0
2218 4 9 0.1546 13.29859432066748 1.1534374379618832 1.5928633718162435 0 0 1
2217 4 10 0 14.011186015135642 1.773822013188688 1.6118648400661586 0 0 1
2004 1 2 -0.192556521739 10.221982189367633 13.902450497608045 14.672998659440468 0 0 0
1021 1 1 0.433743478261 2.3041412700077535 8.194732006157809 2.2386737939419827 0 0 0
1022 1 2 -0.192556521739 2.334864054559536 10.034349132873498 3.330330816717231 0 0 0
1023 1 2 -0.192556521739 2.858753242780945 10.253605213574911 2.124441762332938 0 0 0
1024 1 4 0.158343478261 1.4725059909027725 10.669032666814644 3.6453179312003985 0 0 0
1025 1 4 0.158343478261 2.441509673286503 11.090219277425382 1.6444205258632243 0 0 0
1026 1 3 -0.602556521739 1.390197256097042 7.141214499890839 1.6385259667144112 0 0 0
1027 1 5 0.157043478261 0.6091483089931136 7.6623267695412745 1.0007120018608324 0 0 0
1028 1 5 0.157043478261 0.7940237803715607 6.639699908628767 2.372405601566515 0 0 0
1030 1 6 -0.300956521739 1.8787481346096406 8.742767484940472 3.353607977583717 0 0 0
1031 1 6 -0.300956521739 2.646905973713487 9.105145064771149 1.3611369432489204 0 0 0
1048 1 2 -0.192556521739 1.7692170440058468 6.232333526568474 5.426462048772705 0 0 0
1060 1 4 0.158343478261 2.564982888468513 7.053083117745984 5.677940079187553 0 0 0
1096 1 6 -0.300956521739 0.5090156348496908 6.714087094051442 5.351633449351872 0 0 0
1874 1 2 -0.192556521739 4.949393549134672 6.294300983112212 1.7790874208100702 0 0 0
1886 1 4 0.158343478261 4.3241811782867785 6.494710714900704 2.628640917092438 0 0 0
1922 1 6 -0.300956521739 5.1229808376608466 6.964019654248035 0.5650027126589109 0 0 0
1029 1 5 0.157043478261 1.7977398885764173 6.47390943788627 0.9367500266070654 0 0 0
2088 1 3 -0.602556521739 7.2624327626007545 15.714793146228184 15.522028676049796 0 0 0
1906 1 5 0.157043478261 7.202658523069033 9.26447770749047 1.3618673695960397 0 0 0
1897 1 3 -0.602556521739 9.848334133338753 6.940020487738959 1.4389691663091895 0 0 0
1898 1 3 -0.602556521739 6.560848456435651 10.147905554219847 1.3636933330688148 0 0 0
1903 1 5 0.157043478261 7.2605054443649895 10.787984137876327 1.8576615496996454 0 0 0
1904 1 5 0.157043478261 10.464767413244248 7.563716432054183 2.040376816334506 0 0 0
1905 1 5 0.157043478261 9.36738073120062 6.325830835318704 2.2583214666809406 0 0 0
1915 1 5 0.157043478261 5.825213401414739 10.044873676794909 2.064539983617102 0 0 0
1916 1 5 0.157043478261 9.047467420459505 7.677920909493683 1.3612739628902595 0 0 0
2211 2 8 0.4998 15.994579015686512 3.2021722109971837 2.3066828905136116 0 0 0
1587 1 7 0.736043478261 8.65113019483805 0.16595184716673161 4.3233653366824765 0 0 0
1869 1 1 0.433743478261 14.80303937580429 8.628408052220815 2.0438433713712896 0 0 0
1873 1 2 -0.192556521739 11.682496380125881 10.741039316464853 1.708165493586432 0 0 0
1877 1 2 -0.192556521739 14.817511448499843 6.64320943145924 2.976038160225483 0 0 0
1884 1 2 -0.192556521739 13.81407941925215 6.798258656549301 2.092139253880238 0 0 0
1885 1 4 0.158343478261 12.482131045759601 10.665699947557389 2.467707419451396 0 0 0
1889 1 4 0.158343478261 15.032237405648626 5.814458477776495 3.6062514577681353 0 0 0
1896 1 4 0.158343478261 13.138605585837414 6.07554475260402 1.7884055578318687 0 0 0
1899 1 3 -0.602556521739 15.393783991592908 9.919993868101823 1.697233001569801 0 0 0
1913 1 5 0.157043478261 14.773289664205494 10.74320619179029 1.4062241234107804 0 0 0
1917 1 5 0.157043478261 16.027353802969294 9.831935188206117 0.7321130415567477 0 0 0
1921 1 6 -0.300956521739 11.418364118547494 10.056463528115351 0.5041688709655633 0 0 0
1925 1 6 -0.300956521739 15.421849955210066 7.838814788398378 2.927362981357256 0 0 0
1932 1 6 -0.300956521739 13.837042195714611 7.983944574183268 1.5018713950619975 0 0 0
1983 1 2 -0.192556521739 15.086711781346823 10.808775262426284 5.085900193095841 0 0 0
2031 1 4 0.158343478261 14.352310743582823 10.543922012766473 4.3341241503407035 0 0 0
2175 1 6 -0.300956521739 16.32570101271213 10.19557569374828 5.204176508434041 0 0 0
1907 1 5 0.157043478261 16.080133167536406 10.310520712057379 2.41209663197383 0 0 0
1872 1 1 0.433743478261 8.691432251543114 14.666414469043504 2.1672415568514936 0 0 0
1875 1 2 -0.192556521739 10.6668886423918 11.594024050697836 1.6739645865054296 0 0 0
1880 1 2 -0.192556521739 6.697866662679319 13.57946014564562 2.1447526332023306 0 0 0
1881 1 2 -0.192556521739 6.676100265219798 14.510971559947874 3.102495266206569 0 0 0
1887 1 4 0.158343478261 10.413391173596006 12.196378657127074 2.5261568958645872 0 0 0
1892 1 4 0.158343478261 5.86395364298581 12.877099557901435 1.9444782877660918 0 0 0
1893 1 4 0.158343478261 5.944430043000584 14.906246239218794 3.7674986742617795 0 0 0
1902 1 3 -0.602556521739 9.943902801337863 15.106787537346417 1.7254878346932407 0 0 0
1909 1 5 0.157043478261 10.843414771999731 14.398261647459604 1.7067481773499962 0 0 0
1911 1 5 0.157043478261 10.464437364466892 15.88553958704274 2.263804051652699 0 0 0
1919 1 5 0.157043478261 10.046911936424575 15.32013568099751 0.6748015302977213 0 0 0
1923 1 6 -0.300956521739 9.994646810903484 11.390706131099034 0.5195097112645892 0 0 0
1928 1 6 -0.300956521739 7.97007783790213 13.713350878742864 1.5798439960996162 0 0 0
1929 1 6 -0.300956521739 7.893615893222492 15.226223515480873 3.1701700496648093 0 0 0
1971 1 2 -0.192556521739 10.29177277322698 15.057743773926148 5.398650161750409 0 0 0
2019 1 4 0.158343478261 10.036214075457758 14.26312130639606 4.694017793178419 0 0 0
2163 1 6 -0.300956521739 9.762802158479083 16.32639133805151 5.46760982999608 0 0 0
1058 1 4 0.158343478261 2.5580344746791375 4.94385584252841 6.864636732361335 0 0 0
948 1 1 0.433743478261 2.2085997302549103 1.9845589894765194 8.345626495600502 0 0 0
949 1 2 -0.192556521739 3.118702355977077 2.089336358277278 10.327005483490774 0 0 0
950 1 2 -0.192556521739 2.0981957181018656 2.9573394377515525 10.337217574848623 0 0 0
953 1 3 -0.602556521739 1.6448434527009062 1.4532185606018135 7.050666488501386 0 0 0
954 1 5 0.157043478261 0.9115101865704627 0.6117110829912217 7.224344722136131 0 0 0
955 1 5 0.157043478261 2.5746256229441196 1.1387983515719842 6.557687826884406 0 0 0
956 1 5 0.157043478261 1.1785722155239875 2.2491389324220257 6.466402333183479 0 0 0
957 1 6 -0.300956521739 3.210341460766131 1.4916885329311973 9.070119268687835 0 0 0
958 1 6 -0.300956521739 1.5743948852294452 2.9095507599106414 9.074829768350863 0 0 0
1094 1 6 -0.300956521739 0.43960323492761383 5.323417135697676 6.943371216281691 0 0 0
1612 1 4 0.158343478261 4.575192056659005 2.32283046484142 6.582161857992918 0 0 0
951 1 4 0.158343478261 3.6760732074024522 1.7987636554450182 11.212289472844905 0 0 0
952 1 4 0.158343478261 1.6592581134025346 3.4013452014702255 11.229017626346803 0 0 0
1985 1 2 -0.192556521739 6.137590732860288 11.806164663043665 15.247120566691056 0 0 0
946 1 7 0.736043478261 0.030975429741961522 4.1078414135427455 8.482038583639614 0 0 0
2214 3 9 0.1546 12.415582519350664 5.147197962879829 4.466580278189922 0 0 0
2216 3 11 -0.6544 12.441256706131574 5.109518794862923 4.454859982515632 0 0 0
2213 3 10 0 11.689557312104938 5.3483506008777875 3.8960980131980465 0 0 0
2008 1 2 -0.192556521739 10.215960578872714 14.796844271267146 13.656964727759526 0 0 0
1600 1 2 -0.192556521739 5.289224384018477 1.5397389474364789 6.3705046565211365 0 0 0
1648 1 6 -0.300956521739 5.490128052547151 0.41330579145467167 6.979460551626242 0 0 0
1621 1 3 -0.602556521739 6.936682642463401 1.3696343372956086 10.048872934415312 0 0 0
1622 1 3 -0.602556521739 10.427634981578164 1.6828099781776311 6.752252964580812 0 0 0
1627 1 5 0.157043478261 9.776774202372248 1.5468591232196813 7.615251414314507 0 0 0
1628 1 5 0.157043478261 7.253319273715229 1.9134570234048174 10.943757090821604 0 0 0
1629 1 5 0.157043478261 6.115223757489507 1.8328849153393907 9.550073819235212 0 0 0
1640 1 5 0.157043478261 7.783052074143124 1.4128901868105104 9.382776356868742 0 0 0
1639 1 5 0.157043478261 11.318225797780476 2.2288942002695085 7.072249983056266 0 0 0
2200 1 6 -0.300956521739 9.098585664804842 15.548332727972904 13.841905384960885 0 0 0
1614 1 4 0.158343478261 13.582469879462192 2.0456665191465984 5.620577541120778 0 0 0
1619 1 4 0.158343478261 15.536737902525307 3.585551668516713 5.563241115935936 0 0 0
1630 1 5 0.157043478261 9.902166637798855 2.1719090657795714 5.918393430835363 0 0 0
1594 1 1 0.433743478261 15.114649727471793 2.165142541779596 8.489626845901931 0 0 0
1599 1 2 -0.192556521739 11.660410488027228 2.0892692288936923 10.605187334713499 0 0 0
1602 1 2 -0.192556521739 14.217971824932254 2.2174965174239 6.452026257285067 0 0 0
1607 1 2 -0.192556521739 15.204558668301628 3.110142418982761 6.465764542713249 0 0 0
1611 1 4 0.158343478261 12.210195701705045 2.9217415700390625 10.225006123026928 0 0 0
1624 1 3 -0.602556521739 15.39374921945592 1.7590162762161452 9.859632393641572 0 0 0
1631 1 5 0.157043478261 16.35826576490817 2.13466337060752 10.199306983513631 0 0 0
1637 1 5 0.157043478261 15.398162801906848 0.668465380372136 9.941296154889242 0 0 0
1641 1 5 0.157043478261 14.664521215095514 2.166040055361661 10.523275830549972 0 0 0
1647 1 6 -0.300956521739 11.783122056292843 0.8731050832540955 9.981485767555073 0 0 0
1650 1 6 -0.300956521739 14.192008494695344 1.598224978351768 7.682619157462107 0 0 0
1655 1 6 -0.300956521739 15.711789712166716 3.124304245492886 7.777651097635282 0 0 0
1979 1 2 -0.192556521739 15.260492920812856 5.542035909021483 10.449897508765416 0 0 0
2027 1 4 0.158343478261 14.476059746331899 4.838116092678894 10.231268598067231 0 0 0
2171 1 6 -0.300956521739 16.494337562038588 5.573904250170973 9.862982307015962 0 0 0
1935 1 7 0.736043478261 12.906021074034918 8.624001160454847 16.669398999108434 0 0 0
1075 1 5 0.157043478261 2.10677528703759 6.288347882878111 11.420852134370733 0 0 0
1076 1 5 0.157043478261 1.206310574852158 9.066321864876437 7.849056505676036 0 0 0
1069 1 3 -0.602556521739 1.3792709802142948 9.782695922036869 7.030711354114217 0 0 0
1070 1 3 -0.602556521739 1.513167017252865 6.469347256804279 10.491861328026188 0 0 0
1077 1 5 0.157043478261 1.9302425164695505 10.678853999047732 7.449866230066607 0 0 0
1078 1 5 0.157043478261 1.6601713870416186 7.5044770644523116 10.201439106012646 0 0 0
1087 1 5 0.157043478261 1.8964397712140662 5.846245458559614 9.711250022626558 0 0 0
1088 1 5 0.157043478261 1.9401298476701154 9.28837435550618 6.219701035730851 0 0 0
1093 1 6 -0.300956521739 0.7056823441300537 11.291837356652747 10.257515926786995 0 0 0
1045 1 2 -0.192556521739 2.0279277798904505 10.922143147307581 10.345884416327307 0 0 0
2215 3 8 0.4998 11.949060782998652 5.222264028617741 5.815625331287013 0 0 0
2146 1 5 0.157043478261 14.980702007932912 5.961193407498967 7.1727813031169525 0 0 0
2161 1 6 -0.300956521739 6.753211440977695 16.504088704709545 11.844260924408676 0 0 0
2074 1 3 -0.602556521739 15.33022358601264 10.322647615844783 10.165028079729835 0 0 0
2076 1 3 -0.602556521739 15.502843958420575 6.847626000831916 6.779827290503844 0 0 0
2098 1 5 0.157043478261 14.937601449597453 7.2188810045503224 5.886924205433348 0 0 0
2100 1 5 0.157043478261 14.893629280410964 9.699340300570332 10.919911423870097 0 0 0
2102 1 5 0.157043478261 15.513132779162207 7.5946146193385315 7.573487726398323 0 0 0
2104 1 5 0.157043478261 15.261261673727265 9.823747429977129 9.194919525910446 0 0 0
2148 1 5 0.157043478261 14.817047423265453 11.284451818930073 10.246427356766562 0 0 0
1034 1 7 0.736043478261 0.02916106241309733 8.28358636479659 12.843071761095084 0 0 0
1036 1 7 0.736043478261 4.128284572623374 16.819001846016008 8.669771755089657 0 0 0
1043 1 1 0.433743478261 2.346590683004932 14.38281569467701 9.010941426930417 0 0 0
1051 1 2 -0.192556521739 2.9786973022119216 14.758683343272356 6.99083214243922 0 0 0
1054 1 2 -0.192556521739 2.378404399140083 13.57649994600016 6.931308958476365 0 0 0
1057 1 4 0.158343478261 2.7817910432922894 11.687629281919092 10.281774259362637 0 0 0
1063 1 4 0.158343478261 3.726257031346165 15.004673404363004 6.319201971235461 0 0 0
1066 1 4 0.158343478261 1.8307304761964787 13.33468847579913 6.086563747776632 0 0 0
1073 1 3 -0.602556521739 1.4896323642674976 14.97204676642364 10.05434014549672 0 0 0
1081 1 5 0.157043478261 1.2062366413689283 14.114525422084567 10.678762229149978 0 0 0
1083 1 5 0.157043478261 0.6229422935717646 15.36552650767929 9.495432496759655 0 0 0
1091 1 5 0.157043478261 1.975273845832312 15.751899522249095 10.645598251307502 0 0 0
1099 1 6 -0.300956521739 3.2415571177001685 15.03074549267128 8.273173965342727 0 0 0
1102 1 6 -0.300956521739 1.8785499003333288 13.39631875722536 8.196746161752557 0 0 0
1991 1 2 -0.192556521739 5.013713768442492 15.364857443040725 11.187852362865035 0 0 0
2039 1 4 0.158343478261 4.2221813611474035 14.677592906071508 11.039576580842752 0 0 0
2183 1 6 -0.300956521739 5.26832527537556 16.39034241921583 10.311468420194894 0 0 0
1956 1 1 0.433743478261 16.915761797197085 6.451935547564582 6.363238180485289 0 0 0
2066 1 3 -0.602556521739 9.894756211108058 15.488204641696367 10.388889761186784 0 0 0
2068 1 3 -0.602556521739 6.612359706136809 15.270622113159492 6.857047636002652 0 0 0
2090 1 5 0.157043478261 5.785640596277901 14.7065418537314 7.328396815876541 0 0 0
2092 1 5 0.157043478261 8.934967161221943 15.200966049071926 10.85516297913311 0 0 0
2110 1 5 0.157043478261 7.5119419071612725 15.414189878605072 7.446199021952972 0 0 0
2112 1 5 0.157043478261 10.646138546979945 14.848210262496108 10.820837607350912 0 0 0
2138 1 5 0.157043478261 6.98080253298104 14.722891682788868 5.9721082950222595 0 0 0
2140 1 5 0.157043478261 9.860633228687302 15.243731798480663 9.333427158075832 0 0 0
1948 1 1 0.433743478261 6.105048624811826 16.551466494826908 6.268579715920383 0 0 0
1968 1 1 0.433743478261 8.446128018592226 15.072796875680693 14.909321575698938 0 0 0
1964 1 1 0.433743478261 14.554073132342408 14.911036666601023 8.21789395260425 0 0 0
1977 1 2 -0.192556521739 14.973075556642213 11.68228776299467 6.105048341959363 0 0 0
1989 1 2 -0.192556521739 11.313885494715946 15.08626718603879 6.254358384547693 0 0 0
2000 1 2 -0.192556521739 13.449982994048513 14.986214679407553 10.083780818608043 0 0 0
2012 1 2 -0.192556521739 14.32035229473757 13.962906454692911 10.202050390967761 0 0 0
2025 1 4 0.158343478261 14.138733907964971 12.332485438107796 6.361647487676302 0 0 0
2037 1 4 0.158343478261 12.005077881800275 14.291461574681536 6.470135587404291 0 0 0
2048 1 4 0.158343478261 12.849835580084793 15.348210476488132 10.883325242868587 0 0 0
2060 1 4 0.158343478261 14.550350735986509 13.381698995104731 11.081844784620815 0 0 0
2084 1 3 -0.602556521739 15.175028826302482 15.365077736397158 6.9287825973592 0 0 0
2118 1 5 0.157043478261 15.429542657312988 14.572024017571717 6.224446095465376 0 0 0
2130 1 5 0.157043478261 16.046960640039472 16.014680617643418 7.0993329553307385 0 0 0
2154 1 5 0.157043478261 14.449280113186253 15.975427960358903 6.366702280300636 0 0 0
2169 1 6 -0.300956521739 16.12455808365868 11.650175084091753 6.838316316536176 0 0 0
2181 1 6 -0.300956521739 11.30903885143251 16.355123779178644 6.787695693962021 0 0 0
2192 1 6 -0.300956521739 13.56970917321022 15.525611590579349 8.881232443371482 0 0 0
2204 1 6 -0.300956521739 14.974170073959462 13.932047721981663 9.018006039094056 0 0 0
2033 1 4 0.158343478261 6.295176841382888 12.651960449814233 14.561281917926898 0 0 0
2056 1 4 0.158343478261 10.95397086346543 14.936059731193165 12.893430207215383 0 0 0
1595 1 1 0.433743478261 8.64854200388165 1.8455076710064897 14.71780080659914 0 0 0
1603 1 2 -0.192556521739 6.639494400896646 2.722524169659943 14.769063908602863 0 0 0
1606 1 2 -0.192556521739 6.685357628692611 1.7402934511316657 13.799007665043328 0 0 0
1609 1 4 0.158343478261 10.314965542624634 2.7004179006539926 12.25611192258012 0 0 0
1615 1 4 0.158343478261 5.785892858857712 3.3156984562637457 15.07024865033594 0 0 0
1618 1 4 0.158343478261 5.909967467595593 1.4610419777598247 13.09295706979454 0 0 0
1625 1 3 -0.602556521739 10.1332837438064 1.742385215290171 14.885732480042234 0 0 0
1633 1 5 0.157043478261 10.498820004640287 0.9675023672770736 14.19442347783652 0 0 0
1635 1 5 0.157043478261 10.337520653979494 1.3964048130068305 15.914317291418378 0 0 0
1643 1 5 0.157043478261 10.571274982121649 2.6740559436805063 14.605045353968025 0 0 0
1645 1 6 -0.300956521739 10.238931490066639 0.6841679957630643 11.563204182821258 0 0 0
1651 1 6 -0.300956521739 7.927220622979977 2.7836645130617503 15.293120367796439 0 0 0
1654 1 6 -0.300956521739 7.946969741629355 1.218286605625272 13.780795141650353 0 0 0
1987 1 2 -0.192556521739 10.529356315448082 5.615435863727374 14.811523925488693 0 0 0
2035 1 4 0.158343478261 10.270341308867422 4.938979494008015 14.00403107969017 0 0 0
2179 1 6 -0.300956521739 10.098762577762587 5.478960452350359 16.09642462532831 0 0 0
1597 1 2 -0.192556521739 10.709853067636308 1.960932330123971 11.596621253932842 0 0 0
1589 1 7 0.736043478261 12.938468256110633 0.17270309434118683 8.39062775959046 0 0 0
1047 1 2 -0.192556521739 2.003152650354011 10.044392356604268 11.358001175408194 0 0 0
1059 1 4 0.158343478261 2.7689913766920133 9.984478494015768 12.121546687275854 0 0 0
1095 1 6 -0.300956521739 0.7023243226225921 9.863126225934028 11.727889460596243 0 0 0
1042 1 1 0.433743478261 2.425639646244546 8.483395620496747 14.454340932343019 0 0 0
1050 1 2 -0.192556521739 1.8814824033197488 6.336555441562911 14.0863844825844 0 0 0
1055 1 2 -0.192556521739 2.7891452398108174 6.419228048651596 15.0754057041947 0 0 0
1062 1 4 0.158343478261 1.0470827545477497 5.608386100848949 14.221612379975719 0 0 0
1067 1 4 0.158343478261 2.8081002361237544 5.659575897739179 15.824291314827182 0 0 0
1072 1 3 -0.602556521739 1.82001521612814 9.772294228808397 15.032229961824973 0 0 0
1079 1 5 0.157043478261 1.523178514582773 10.418423347979193 14.187925168904851 0 0 0
1085 1 5 0.157043478261 2.5431425490037407 10.227394070823944 15.589668041490212 0 0 0
1089 1 5 0.157043478261 0.9640635693883878 9.506488790030089 15.659809096415625 0 0 0
1098 1 6 -0.300956521739 1.6295585687269414 7.659400615833347 13.739830782992648 0 0 0
1103 1 6 -0.300956521739 3.2160718207439665 7.7086511609864 15.225277043662798 0 0 0
2023 1 4 0.158343478261 4.426621367747881 10.753328224992169 14.579667544425952 0 0 0
1975 1 2 -0.192556521739 5.2216403665798286 10.81240407448295 15.267499379179489 0 0 0
2167 1 6 -0.300956521739 5.467307451653202 10.044994085871569 16.36739475060509 0 0 0
1951 1 1 0.433743478261 6.498945534153777 10.487664199025344 17.00801825378113 0 0 0
2122 1 5 0.157043478261 6.6592250993454485 15.09258385490629 16.17283573546904 0 0 0
2094 1 5 0.157043478261 6.980272566848577 7.484208227636707 14.893625704082165 0 0 0
2142 1 5 0.157043478261 7.812301287547385 5.882045322068866 14.933838072629802 0 0 0
1952 1 1 0.433743478261 6.597207928889073 6.290572708304785 16.676017749984577 0 0 0
2070 1 3 -0.602556521739 10.079415904777315 10.320825322620722 15.344473210524857 0 0 0
2072 1 3 -0.602556521739 6.915948551466867 6.439870812392076 15.174652363801354 0 0 0
2096 1 5 0.157043478261 9.904061611180307 11.239397566281344 14.80714295494406 0 0 0
2106 1 5 0.157043478261 6.056706982781993 5.98342278432103 14.6226089558915 0 0 0
2108 1 5 0.157043478261 9.101729676279938 9.823651890381381 15.365849453108911 0 0 0
2144 1 5 0.157043478261 10.84037025594406 9.695872956125774 14.86889239772432 0 0 0
2165 1 6 -0.300956521739 11.622930308181012 7.109388519796295 16.117912860899086 0 0 0
1973 1 2 -0.192556521739 11.429951826164785 6.627525567161435 14.847774139136915 0 0 0
1950 1 1 0.433743478261 10.560556972741814 10.658392502350148 16.752443508933023 0 0 0
2177 1 6 -0.300956521739 6.964899716382379 11.498706714146119 16.33259369074607 0 0 0
1981 1 2 -0.192556521739 15.233314258406429 6.476571764525123 11.421386619087201 0 0 0
2173 1 6 -0.300956521739 16.481759272939843 7.023456377727118 11.468743925180243 0 0 0
2017 1 4 0.158343478261 6.19108089168187 14.649800573515064 12.929021771996332 0 0 0
2044 1 4 0.158343478261 15.322167358990852 11.285942193448722 13.009529949569659 0 0 0
2064 1 4 0.158343478261 13.25085648580073 11.25792958284837 14.650037263116277 0 0 0
1960 1 1 0.433743478261 14.900204256981665 8.512694901912672 14.55325956726792 0 0 0
1996 1 2 -0.192556521739 14.983146916188291 10.465747156593986 13.62112802975836 0 0 0
2016 1 2 -0.192556521739 13.934434319850318 10.4378627287612 14.464788042464978 0 0 0
2021 1 4 0.158343478261 12.033339817328798 6.897926748014681 13.992990202413804 0 0 0
2029 1 4 0.158343478261 14.418914666100322 6.668805837756136 12.09634901724148 0 0 0
2080 1 3 -0.602556521739 15.156014392151384 7.106124136327331 14.90363707687431 0 0 0
2114 1 5 0.157043478261 15.151446494687857 6.463242851904377 14.045102856933461 0 0 0
2134 1 5 0.157043478261 14.427545615609334 6.744832742222986 15.623585577911019 0 0 0
2150 1 5 0.157043478261 16.1115603771566 6.921902700294189 15.373633714888093 0 0 0
2188 1 6 -0.300956521739 15.574362385554668 9.244569389905834 13.68309346419306 0 0 0
2208 1 6 -0.300956521739 13.945581494649538 9.252047525853955 15.071089673168544 0 0 0
2158 1 5 0.157043478261 7.716587120469378 16.519564120520933 16.089462760407624 0 0 0
2221 5 10 0 0.21963323475278965 14.575201995791955 14.00516142321762 0 0 0
2126 1 5 0.157043478261 6.673295001296805 16.23450177948352 14.79129130025059 0 0 0
2296 23 13 0.527 12.879479001800911 4.699974343457104 15.444913982405835 0 0 0
1941 1 7 0.736043478261 8.443155843532395 12.771381286331536 16.897266122462465 0 0 0
1946 1 1 0.433743478261 10.346062013989796 16.912584552644667 10.637813140502285 0 0 0
1673 1 1 0.433743478261 10.345424977054385 6.311709943524695 0.12137611301594166 0 0 1
2219 4 8 0.4998 12.55782285967432 1.3709250254616117 0.389885071155083 0 0 1
1934 1 7 0.736043478261 8.315786729345104 16.87305539416595 4.179594523586401 0 0 0
1592 1 1 0.433743478261 10.85651500752056 0.32043835741158005 6.347715609530378 0 0 0
1942 1 7 0.736043478261 8.622373582399186 4.044591753213181 16.647749532886063 0 0 0
2294 23 14 -1.054 13.353835025286958 4.366099367528182 16.183833188771114 0 0 0
1949 1 1 0.433743478261 10.746441528635568 6.379094061658406 16.828635981487594 0 0 0
2224 5 11 -0.6544 0.6286063739787058 15.281781644328259 13.487673529092511 0 0 0
2295 23 13 0.527 14.014209734015335 3.7324663776258635 15.971931777063016 0 0 0
2293 23 12 0 13.33457574774354 4.39713454434097 16.282275547685888 0 0 0
1936 1 7 0.736043478261 4.226658226666536 8.356031496811928 16.851239545524393 0 0 0
1037 1 1 0.433743478261 0.10575480754509543 10.244682813829828 6.59663148131595 0 0 0
1954 1 1 0.433743478261 16.75422747152876 10.659450529266612 10.531459217175303 0 0 0
1953 1 1 0.433743478261 16.94685265705533 10.836667254829035 6.204728830424915 0 0 0
1937 1 7 0.736043478261 16.655570305409693 12.79340619193498 8.393527063611048 0 0 0
1035 1 7 0.736043478261 0.128474414737848 8.410703050745221 4.316844772002696 0 0 0
1317 1 1 0.433743478261 10.843538560219683 0.119505218269631 10.504915067519548 0 1 0
1039 1 1 0.433743478261 0.04831720938278998 6.18017749112354 10.721387766620873 0 0 0
1933 1 7 0.736043478261 8.427646586842792 16.976544790335087 12.850075208297891 0 0 0
1526 1 2 -0.192556521739 6.30129829164297 2.0996759821217843 22.34904686997716 0 0 0
1536 1 4 0.158343478261 6.53065784961642 2.970859948818616 21.74383411025188 0 0 0
1566 1 6 -0.300956521739 6.942058919716967 0.9210647022125368 22.22960816281099 0 0 0
1596 1 1 0.433743478261 8.383204603988014 1.9935595105945094 18.873314325976942 0 0 0
1604 1 2 -0.192556521739 10.463574192714304 2.478492179470742 18.53427650199799 0 0 0
1605 1 2 -0.192556521739 10.417692529892774 1.5209740560727218 19.462661768478366 0 0 0
1626 1 3 -0.602556521739 6.955016509982059 1.857973885277508 18.743982985933215 0 0 0
1634 1 5 0.157043478261 6.576725385570173 1.4685288160402827 19.68693756856209 0 0 0
1636 1 5 0.157043478261 6.779859171552099 1.1936412841359938 17.933792685172374 0 0 0
1644 1 5 0.157043478261 6.5471562935247825 2.815712492232427 18.495361780493752 0 0 0
1652 1 6 -0.300956521739 9.194312547135004 2.7407007506680534 18.1415791406285 0 0 0
1653 1 6 -0.300956521739 9.103078731208003 1.2522889052562027 19.713585034067005 0 0 0
2036 1 4 0.158343478261 7.02814167594112 4.881073758644816 19.522331849581164 0 0 0
2180 1 6 -0.300956521739 7.240348780676768 5.373545469265524 17.426913900335457 0 0 0
1616 1 4 0.158343478261 11.390747931364837 2.871113589734103 18.174719557897042 0 0 0
1988 1 2 -0.192556521739 6.700085641120218 5.469258529785177 18.661010674379664 0 0 0
1617 1 4 0.158343478261 11.285697838686575 1.1541936979368366 20.001322155425232 0 0 0
2235 8 8 0.4998 12.166892803996168 6.173380024569531 21.331537650302998 0 0 0
1516 1 7 0.736043478261 8.388135851613901 0.027368815358256304 21.14900297362134 0 0 0
1669 1 1 0.433743478261 6.365848281514348 16.89808254522556 27.864587981853177 0 0 0
1674 1 1 0.433743478261 10.361037023012557 10.376754438687101 33.81032522034892 0 0 0
1518 1 7 0.736043478261 13.07643758054216 0.07991612552169845 25.491321189648165 0 0 0
974 1 2 -0.192556521739 1.4921547173439662 5.8616949033883365 22.035555992610085 0 0 0
984 1 4 0.158343478261 2.4690162753575646 6.122202977051622 21.650426842542306 0 0 0
1014 1 6 -0.300956521739 0.5448423394742363 6.790851879241572 22.263967189792087 0 0 0
1041 1 1 0.433743478261 2.2841540597761 8.170458661342648 19.11248805575833 0 0 0
1049 1 2 -0.192556521739 2.588345883300884 9.995661030291831 20.26960019493268 0 0 0
1056 1 2 -0.192556521739 3.4646751324487974 9.982732431310819 19.22636545441417 0 0 0
1061 1 4 0.158343478261 2.2639178142268044 10.936198956937975 20.760557743520994 0 0 0
1068 1 4 0.158343478261 3.633676237976419 10.94348540921195 18.747254076704554 0 0 0
1071 1 3 -0.602556521739 1.2268305970976543 7.4291541169661 18.365082830532664 0 0 0
1080 1 5 0.157043478261 0.6541477073069157 8.108391253868028 17.768231866862088 0 0 0
1086 1 5 0.157043478261 0.5730474280340843 6.826269835432602 19.01143119031927 0 0 0
1090 1 5 0.157043478261 1.7379593728813787 6.762914672521057 17.696002369202787 0 0 0
1097 1 6 -0.300956521739 1.7489253418364146 8.90996132044105 20.16474378782575 0 0 0
1104 1 6 -0.300956521739 2.9162245942437934 9.012393783748443 18.36680148933504 0 0 0
2024 1 4 0.158343478261 5.11383295776295 6.757826224982092 19.475782424189543 0 0 0
2168 1 6 -0.300956521739 5.5440529337713755 6.847937923588293 17.390572587224217 0 0 0
1976 1 2 -0.192556521739 5.717190779921046 6.38701911173766 18.669855744869174 0 0 0