# LAMMPS data file

2208 atoms
2496 bonds
4608 angles
7296 dihedrals
2112 impropers

14 atom types
12 bond types
16 angle types
15 dihedral types
7 improper types

0 34.02400207519531 xlo xhi
0 34.02400207519531 ylo yhi
0 34.02400207519531 zlo zhi

Masses

1 12.011   # C1 (zif8)
2 12.011   # C2 (zif8)
3 12.011   # C3 (zif8)
4 1.008    # H2 (zif8)
5 1.008    # H3 (zif8)
6 14.007   # N (zif8)
7 65.38    # Zn (zif8)
8 1.008    # HO (CH4O)
9 1.008    # HC (CH4O)
10 12.011  # CH (CH4O)
11 15.9994 # OH (CH4O)
12 15.999  # OW (H2O)
13 1.00784 # HW (H2O)
14 0.0001  # MW (H2O)

Atoms # full

1 1 7 0.00000 29.96597 25.57676 33.86600 # Zn
2 1 7 0.00000 21.45997 25.57676 33.86600 # Zn
3 1 7 0.00000 25.71297 29.82976 33.86600 # Zn
4 1 7 0.00000 25.71297 21.32376 33.86600 # Zn
5 1 1 0.00000 27.80297 33.98075 27.45000 # C1
6 1 1 0.00000 23.62297 33.98075 23.27000 # C1
7 1 1 0.00000 27.80297 23.48676 33.96800 # C1
8 1 1 0.00000 27.80297 27.66676 33.76400 # C1
9 1 1 0.00000 23.62297 27.66676 33.96800 # C1
10 1 1 0.00000 23.62297 23.48676 33.76400 # C1
11 1 1 0.00000 32.12797 25.47476 31.77500 # C1
12 1 1 0.00000 32.12797 31.99176 25.25800 # C1
13 1 1 0.00000 25.61097 31.99176 31.77500 # C1
14 1 2 0.00000 23.52097 32.28976 28.51900 # C2
15 1 2 0.00000 27.90497 32.28976 22.20100 # C2
16 1 2 0.00000 28.87197 23.38476 32.07300 # C2
17 1 2 0.00000 22.55397 27.76875 32.07300 # C2
18 1 2 0.00000 32.42597 28.73576 23.16800 # C2
19 1 2 0.00000 32.42597 22.41776 27.55200 # C2
20 1 2 0.00000 32.42597 23.38476 28.51900 # C2
21 1 2 0.00000 32.42597 27.76875 22.20100 # C2
22 1 2 0.00000 23.52097 28.73576 32.07300 # C2
23 1 2 0.00000 27.90497 22.41776 32.07300 # C2
24 1 2 0.00000 28.87197 32.28976 23.16800 # C2
25 1 2 0.00000 22.55397 32.28976 27.55200 # C2
26 1 2 0.00000 32.02697 27.36975 30.70600 # C2
27 1 2 0.00000 31.05897 31.89076 27.15300 # C2
28 1 2 0.00000 27.50597 30.92276 31.67400 # C2
29 1 2 0.00000 27.50597 31.89076 30.70600 # C2
30 1 2 0.00000 32.02697 30.92276 27.15300 # C2
31 1 2 0.00000 31.05897 27.36975 31.67400 # C2
32 1 4 0.00000 23.78197 31.53076 29.24100 # H2
33 1 4 0.00000 27.64397 31.53076 21.47800 # H2
34 1 4 0.00000 29.59397 23.64576 31.31400 # H2
35 1 4 0.00000 21.83097 27.50776 31.31400 # H2
36 1 4 0.00000 31.66697 29.45776 23.42900 # H2
37 1 4 0.00000 31.66697 21.69476 27.29100 # H2
38 1 4 0.00000 31.66697 23.64576 29.24100 # H2
39 1 4 0.00000 31.66697 27.50776 21.47800 # H2
40 1 4 0.00000 23.78197 29.45776 31.31400 # H2
41 1 4 0.00000 27.64397 21.69476 31.31400 # H2
42 1 4 0.00000 29.59397 31.53076 23.42900 # H2
43 1 4 0.00000 21.83097 31.53076 27.29100 # H2
44 1 4 0.00000 32.28797 28.12876 29.98400 # H2
45 1 4 0.00000 30.33697 32.15176 27.91200 # H2
46 1 4 0.00000 28.26497 30.20076 31.93500 # H2
47 1 4 0.00000 28.26497 32.15176 29.98400 # H2
48 1 4 0.00000 32.28797 30.20076 27.91200 # H2
49 1 4 0.00000 30.33697 28.12876 31.93500 # H2
50 1 3 0.00000 27.33497 32.64875 26.98200 # C3
51 1 3 0.00000 24.09097 32.64875 23.73800 # C3
52 1 3 0.00000 27.33497 27.19876 32.43200 # C3
53 1 3 0.00000 24.09097 23.95476 32.43200 # C3
54 1 3 0.00000 32.78497 27.19876 26.98200 # C3
55 1 3 0.00000 32.78497 23.95476 23.73800 # C3
56 1 3 0.00000 32.59697 24.14276 32.24400 # C3
57 1 3 0.00000 32.59697 32.46075 23.92600 # C3
58 1 3 0.00000 24.27897 32.46075 32.24400 # C3
59 1 5 0.00000 24.52497 32.07175 22.91900 # H3
60 1 5 0.00000 26.90097 32.07175 27.80000 # H3
61 1 5 0.00000 23.27197 24.38876 31.85500 # H3
62 1 5 0.00000 28.15297 26.76476 31.85500 # H3
63 1 5 0.00000 32.20797 23.13576 24.17200 # H3
64 1 5 0.00000 32.20797 28.01676 26.54800 # H3
65 1 5 0.00000 32.20797 24.38876 22.91900 # H3
66 1 5 0.00000 32.20797 26.76476 27.80000 # H3
67 1 5 0.00000 24.52497 23.13576 31.85500 # H3
68 1 5 0.00000 26.90097 28.01676 31.85500 # H3
69 1 5 0.00000 23.27197 32.07175 24.17200 # H3
70 1 5 0.00000 28.15297 32.07175 26.54800 # H3
71 1 5 0.00000 33.03097 23.56576 31.42500 # H3
72 1 5 0.00000 31.77797 32.89476 23.34900 # H3
73 1 5 0.00000 23.70197 31.64176 32.67800 # H3
74 1 5 0.00000 23.70197 32.89476 31.42500 # H3
75 1 5 0.00000 33.03097 31.64176 23.34900 # H3
76 1 5 0.00000 31.77797 23.56576 32.67800 # H3
77 1 5 0.00000 24.86297 32.74676 24.51000 # H3
78 1 5 0.00000 26.56297 32.74676 26.21000 # H3
79 1 5 0.00000 24.86297 24.72676 32.53000 # H3
80 1 5 0.00000 26.56297 26.42676 32.53000 # H3
81 1 5 0.00000 32.88297 24.72676 24.51000 # H3
82 1 5 0.00000 32.88297 26.42676 26.21000 # H3
83 1 5 0.00000 33.36897 24.24076 33.01600 # H3
84 1 5 0.00000 33.36897 33.23276 24.02400 # H3
85 1 5 0.00000 24.37697 33.23276 33.01600 # H3
86 1 6 0.00000 24.18997 33.48976 28.45500 # N
87 1 6 0.00000 27.23597 33.48976 22.26500 # N
88 1 6 0.00000 28.80797 24.05375 33.27300 # N
89 1 6 0.00000 22.61797 27.09976 33.27300 # N
90 1 6 0.00000 33.62597 28.67175 23.83700 # N
91 1 6 0.00000 33.62597 22.48176 26.88300 # N
92 1 6 0.00000 33.62597 24.05375 28.45500 # N
93 1 6 0.00000 33.62597 27.09976 22.26500 # N
94 1 6 0.00000 24.18997 28.67175 33.27300 # N
95 1 6 0.00000 27.23597 22.48176 33.27300 # N
96 1 6 0.00000 28.80797 33.48976 23.83700 # N
97 1 6 0.00000 22.61797 33.48976 26.88300 # N
98 1 6 0.00000 32.69597 26.16976 30.77100 # N
99 1 6 0.00000 31.12397 32.55976 25.95300 # N
100 1 6 0.00000 26.30597 30.98775 32.34300 # N
101 1 6 0.00000 26.30597 32.55976 30.77100 # N
102 1 6 0.00000 32.69597 30.98775 25.95300 # N
103 1 6 0.00000 31.12397 26.16976 32.34300 # N
104 1 1 0.00000 32.12797 25.67875 1.93200 # C1
105 1 1 0.00000 25.81497 31.99176 1.93200 # C1
106 1 2 0.00000 28.87197 27.76875 1.63500 # C2
107 1 2 0.00000 22.55397 23.38476 1.63500 # C2
108 1 2 0.00000 27.90497 28.73576 1.63500 # C2
109 1 2 0.00000 23.52097 22.41776 1.63500 # C2
110 1 2 0.00000 32.02697 23.78376 3.00100 # C2
111 1 2 0.00000 23.91997 30.92276 2.03400 # C2
112 1 2 0.00000 23.91997 31.89076 3.00100 # C2
113 1 2 0.00000 31.05897 23.78376 2.03400 # C2
114 1 4 0.00000 29.59397 27.50776 2.39300 # H2
115 1 4 0.00000 21.83097 23.64576 2.39300 # H2
116 1 4 0.00000 27.64397 29.45776 2.39300 # H2
117 1 4 0.00000 23.78197 21.69476 2.39300 # H2
118 1 4 0.00000 32.28797 23.02476 3.72300 # H2
119 1 4 0.00000 23.16097 30.20076 1.77200 # H2
120 1 4 0.00000 23.16097 32.15176 3.72300 # H2
121 1 4 0.00000 30.33697 23.02476 1.77200 # H2
122 1 3 0.00000 27.33497 23.95476 1.27600 # C3
123 1 3 0.00000 24.09097 27.19876 1.27600 # C3
124 1 3 0.00000 32.59697 27.01076 1.46400 # C3
125 1 3 0.00000 27.14697 32.46075 1.46400 # C3
126 1 5 0.00000 23.27197 26.76476 1.85200 # H3
127 1 5 0.00000 28.15297 24.38876 1.85200 # H3
128 1 5 0.00000 26.90097 23.13576 1.85200 # H3
129 1 5 0.00000 24.52497 28.01676 1.85200 # H3
130 1 5 0.00000 33.03097 27.58676 2.28200 # H3
131 1 5 0.00000 27.72297 31.64176 1.03000 # H3
132 1 5 0.00000 27.72297 32.89476 2.28200 # H3
133 1 5 0.00000 31.77797 27.58676 1.03000 # H3
134 1 5 0.00000 24.86297 26.42676 1.17800 # H3
135 1 5 0.00000 26.56297 24.72676 1.17800 # H3
136 1 5 0.00000 33.36897 26.91276 0.69200 # H3
137 1 5 0.00000 27.04897 33.23276 0.69200 # H3
138 1 6 0.00000 28.80797 27.09976 0.43500 # N
139 1 6 0.00000 22.61797 24.05375 0.43500 # N
140 1 6 0.00000 27.23597 28.67175 0.43500 # N
141 1 6 0.00000 24.18997 22.48176 0.43500 # N
142 1 6 0.00000 32.69597 24.98376 2.93600 # N
143 1 6 0.00000 25.11997 30.98775 1.36500 # N
144 1 6 0.00000 25.11997 32.55976 2.93600 # N
145 1 6 0.00000 31.12397 24.98376 1.36500 # N
146 1 7 0.00000 29.96597 25.57676 16.85400 # Zn
147 1 7 0.00000 21.45997 25.57676 16.85400 # Zn
148 1 7 0.00000 25.71297 29.82976 16.85400 # Zn
149 1 7 0.00000 25.71297 21.32376 16.85400 # Zn
150 1 1 0.00000 27.80297 33.98075 10.43800 # C1
151 1 1 0.00000 23.62297 33.98075 6.25800 # C1
152 1 1 0.00000 27.80297 23.48676 16.95600 # C1
153 1 1 0.00000 27.80297 27.66676 16.75200 # C1
154 1 1 0.00000 23.62297 27.66676 16.95600 # C1
155 1 1 0.00000 23.62297 23.48676 16.75200 # C1
156 1 1 0.00000 32.12797 25.67875 18.94400 # C1
157 1 1 0.00000 32.12797 25.47476 14.76300 # C1
158 1 1 0.00000 32.12797 31.99176 8.24600 # C1
159 1 1 0.00000 25.81497 31.99176 18.94400 # C1
160 1 1 0.00000 25.61097 31.99176 14.76300 # C1
161 1 2 0.00000 23.52097 32.28976 11.50700 # C2
162 1 2 0.00000 27.90497 32.28976 5.18900 # C2
163 1 2 0.00000 28.87197 23.38476 15.06100 # C2
164 1 2 0.00000 28.87197 27.76875 18.64700 # C2
165 1 2 0.00000 22.55397 27.76875 15.06100 # C2
166 1 2 0.00000 22.55397 23.38476 18.64700 # C2
167 1 2 0.00000 32.42597 28.73576 6.15600 # C2
168 1 2 0.00000 32.42597 22.41776 10.54000 # C2
169 1 2 0.00000 32.42597 23.38476 11.50700 # C2
170 1 2 0.00000 32.42597 27.76875 5.18900 # C2
171 1 2 0.00000 23.52097 28.73576 15.06100 # C2
172 1 2 0.00000 27.90497 28.73576 18.64700 # C2
173 1 2 0.00000 27.90497 22.41776 15.06100 # C2
174 1 2 0.00000 23.52097 22.41776 18.64700 # C2
175 1 2 0.00000 28.87197 32.28976 6.15600 # C2
176 1 2 0.00000 22.55397 32.28976 10.54000 # C2
177 1 2 0.00000 32.02697 23.78376 20.01300 # C2
178 1 2 0.00000 32.02697 27.36975 13.69400 # C2
179 1 2 0.00000 31.05897 31.89076 10.14100 # C2
180 1 2 0.00000 23.91997 30.92276 19.04599 # C2
181 1 2 0.00000 27.50597 30.92276 14.66200 # C2
182 1 2 0.00000 23.91997 31.89076 20.01300 # C2
183 1 2 0.00000 27.50597 31.89076 13.69400 # C2
184 1 2 0.00000 32.02697 30.92276 10.14100 # C2
185 1 2 0.00000 31.05897 23.78376 19.04599 # C2
186 1 2 0.00000 31.05897 27.36975 14.66200 # C2
187 1 4 0.00000 23.78197 31.53076 12.22900 # H2
188 1 4 0.00000 27.64397 31.53076 4.46600 # H2
189 1 4 0.00000 29.59397 23.64576 14.30200 # H2
190 1 4 0.00000 29.59397 27.50776 19.40499 # H2
191 1 4 0.00000 21.83097 27.50776 14.30200 # H2
192 1 4 0.00000 21.83097 23.64576 19.40499 # H2
193 1 4 0.00000 31.66697 29.45776 6.41700 # H2
194 1 4 0.00000 31.66697 21.69476 10.27900 # H2
195 1 4 0.00000 31.66697 23.64576 12.22900 # H2
196 1 4 0.00000 31.66697 27.50776 4.46600 # H2
197 1 4 0.00000 23.78197 29.45776 14.30200 # H2
198 1 4 0.00000 27.64397 29.45776 19.40499 # H2
199 1 4 0.00000 27.64397 21.69476 14.30200 # H2
200 1 4 0.00000 23.78197 21.69476 19.40499 # H2
201 1 4 0.00000 29.59397 31.53076 6.41700 # H2
202 1 4 0.00000 21.83097 31.53076 10.27900 # H2
203 1 4 0.00000 32.28797 23.02476 20.73500 # H2
204 1 4 0.00000 32.28797 28.12876 12.97200 # H2
205 1 4 0.00000 30.33697 32.15176 10.90000 # H2
206 1 4 0.00000 23.16097 30.20076 18.78400 # H2
207 1 4 0.00000 28.26497 30.20076 14.92300 # H2
208 1 4 0.00000 23.16097 32.15176 20.73500 # H2
209 1 4 0.00000 28.26497 32.15176 12.97200 # H2
210 1 4 0.00000 32.28797 30.20076 10.90000 # H2
211 1 4 0.00000 30.33697 23.02476 18.78400 # H2
212 1 4 0.00000 30.33697 28.12876 14.92300 # H2
213 1 3 0.00000 27.33497 32.64875 9.97000 # C3
214 1 3 0.00000 24.09097 32.64875 6.72600 # C3
215 1 3 0.00000 27.33497 23.95476 18.28800 # C3
216 1 3 0.00000 27.33497 27.19876 15.41999 # C3
217 1 3 0.00000 24.09097 27.19876 18.28800 # C3
218 1 3 0.00000 24.09097 23.95476 15.41999 # C3
219 1 3 0.00000 32.78497 27.19876 9.97000 # C3
220 1 3 0.00000 32.78497 23.95476 6.72600 # C3
221 1 3 0.00000 32.59697 27.01076 18.47599 # C3
222 1 3 0.00000 32.59697 24.14276 15.23200 # C3
223 1 3 0.00000 32.59697 32.46075 6.91400 # C3
224 1 3 0.00000 27.14697 32.46075 18.47599 # C3
225 1 3 0.00000 24.27897 32.46075 15.23200 # C3
226 1 5 0.00000 24.52497 32.07175 5.90700 # H3
227 1 5 0.00000 26.90097 32.07175 10.78800 # H3
228 1 5 0.00000 23.27197 26.76476 18.86399 # H3
229 1 5 0.00000 23.27197 24.38876 14.84300 # H3
230 1 5 0.00000 28.15297 24.38876 18.86399 # H3
231 1 5 0.00000 28.15297 26.76476 14.84300 # H3
232 1 5 0.00000 32.20797 23.13576 7.16000 # H3
233 1 5 0.00000 32.20797 28.01676 9.53600 # H3
234 1 5 0.00000 32.20797 24.38876 5.90700 # H3
235 1 5 0.00000 32.20797 26.76476 10.78800 # H3
236 1 5 0.00000 26.90097 23.13576 18.86399 # H3
237 1 5 0.00000 24.52497 23.13576 14.84300 # H3
238 1 5 0.00000 24.52497 28.01676 18.86399 # H3
239 1 5 0.00000 26.90097 28.01676 14.84300 # H3
240 1 5 0.00000 23.27197 32.07175 7.16000 # H3
241 1 5 0.00000 28.15297 32.07175 9.53600 # H3
242 1 5 0.00000 33.03097 23.56576 14.41300 # H3
243 1 5 0.00000 33.03097 27.58676 19.29399 # H3
244 1 5 0.00000 31.77797 32.89476 6.33700 # H3
245 1 5 0.00000 27.72297 31.64176 18.04200 # H3
246 1 5 0.00000 23.70197 31.64176 15.66600 # H3
247 1 5 0.00000 23.70197 32.89476 14.41300 # H3
248 1 5 0.00000 27.72297 32.89476 19.29399 # H3
249 1 5 0.00000 33.03097 31.64176 6.33700 # H3
250 1 5 0.00000 31.77797 27.58676 18.04200 # H3
251 1 5 0.00000 31.77797 23.56576 15.66600 # H3
252 1 5 0.00000 24.86297 32.74676 7.49800 # H3
253 1 5 0.00000 26.56297 32.74676 9.19800 # H3
254 1 5 0.00000 24.86297 26.42676 18.19000 # H3
255 1 5 0.00000 24.86297 24.72676 15.51799 # H3
256 1 5 0.00000 26.56297 24.72676 18.19000 # H3
257 1 5 0.00000 26.56297 26.42676 15.51799 # H3
258 1 5 0.00000 32.88297 24.72676 7.49800 # H3
259 1 5 0.00000 32.88297 26.42676 9.19800 # H3
260 1 5 0.00000 33.36897 24.24076 16.00399 # H3
261 1 5 0.00000 33.36897 26.91276 17.70400 # H3
262 1 5 0.00000 33.36897 33.23276 7.01200 # H3
263 1 5 0.00000 27.04897 33.23276 17.70400 # H3
264 1 5 0.00000 24.37697 33.23276 16.00399 # H3
265 1 6 0.00000 24.18997 33.48976 11.44300 # N
266 1 6 0.00000 27.23597 33.48976 5.25300 # N
267 1 6 0.00000 28.80797 24.05375 16.26100 # N
268 1 6 0.00000 28.80797 27.09976 17.44699 # N
269 1 6 0.00000 22.61797 27.09976 16.26100 # N
270 1 6 0.00000 22.61797 24.05375 17.44699 # N
271 1 6 0.00000 33.62597 28.67175 6.82500 # N
272 1 6 0.00000 33.62597 22.48176 9.87100 # N
273 1 6 0.00000 33.62597 24.05375 11.44300 # N
274 1 6 0.00000 33.62597 27.09976 5.25300 # N
275 1 6 0.00000 24.18997 28.67175 16.26100 # N
276 1 6 0.00000 27.23597 28.67175 17.44699 # N
277 1 6 0.00000 27.23597 22.48176 16.26100 # N
278 1 6 0.00000 24.18997 22.48176 17.44699 # N
279 1 6 0.00000 28.80797 33.48976 6.82500 # N
280 1 6 0.00000 22.61797 33.48976 9.87100 # N
281 1 6 0.00000 32.69597 24.98376 19.94799 # N
282 1 6 0.00000 32.69597 26.16976 13.75900 # N
283 1 6 0.00000 31.12397 32.55976 8.94100 # N
284 1 6 0.00000 25.11997 30.98775 18.37700 # N
285 1 6 0.00000 26.30597 30.98775 15.33100 # N
286 1 6 0.00000 25.11997 32.55976 19.94799 # N
287 1 6 0.00000 26.30597 32.55976 13.75900 # N
288 1 6 0.00000 32.69597 30.98775 8.94100 # N
289 1 6 0.00000 31.12397 24.98376 18.37700 # N
290 1 6 0.00000 31.12397 26.16976 15.33100 # N
291 1 7 0.00000 25.71297 0.05876 29.61300 # Zn
292 1 7 0.00000 25.71297 0.05876 21.10700 # Zn
293 1 7 0.00000 29.96597 0.05876 25.36000 # Zn
294 1 1 0.00000 23.62297 0.16076 27.45000 # C1
295 1 1 0.00000 27.80297 0.16076 23.27000 # C1
296 1 1 0.00000 32.12797 2.14876 25.46200 # C1
297 1 1 0.00000 25.81497 2.14876 31.77500 # C1
298 1 2 0.00000 27.90497 1.85176 28.51900 # C2
299 1 2 0.00000 23.52097 1.85176 22.20100 # C2
300 1 2 0.00000 28.87197 1.85176 27.55200 # C2
301 1 2 0.00000 22.55397 1.85176 23.16800 # C2
302 1 2 0.00000 31.05897 2.25076 23.56700 # C2
303 1 2 0.00000 23.91997 3.21776 31.67400 # C2
304 1 2 0.00000 23.91997 2.25076 30.70600 # C2
305 1 2 0.00000 32.02697 3.21776 23.56700 # C2
306 1 4 0.00000 27.64397 2.60976 29.24100 # H2
307 1 4 0.00000 23.78197 2.60976 21.47800 # H2
308 1 4 0.00000 29.59397 2.60976 27.29100 # H2
309 1 4 0.00000 21.83097 2.60976 23.42900 # H2
310 1 4 0.00000 30.33697 1.98876 22.80800 # H2
311 1 4 0.00000 23.16097 3.93976 31.93500 # H2
312 1 4 0.00000 23.16097 1.98876 29.98400 # H2
313 1 4 0.00000 32.28797 3.93976 22.80800 # H2
314 1 3 0.00000 24.09097 1.49276 26.98200 # C3
315 1 3 0.00000 27.33497 1.49276 23.73800 # C3
316 1 3 0.00000 32.59697 1.68076 26.79400 # C3
317 1 3 0.00000 27.14697 1.68076 32.24400 # C3
318 1 5 0.00000 26.90097 2.06876 22.91900 # H3
319 1 5 0.00000 24.52497 2.06876 27.80000 # H3
320 1 5 0.00000 23.27197 2.06876 26.54800 # H3
321 1 5 0.00000 28.15297 2.06876 24.17200 # H3
322 1 5 0.00000 31.77797 1.24676 27.37000 # H3
323 1 5 0.00000 27.72297 2.49876 32.67800 # H3
324 1 5 0.00000 27.72297 1.24676 31.42500 # H3
325 1 5 0.00000 33.03097 2.49876 27.37000 # H3
326 1 5 0.00000 26.56297 1.39476 24.51000 # H3
327 1 5 0.00000 24.86297 1.39476 26.21000 # H3
328 1 5 0.00000 33.36897 0.90876 26.69600 # H3
329 1 5 0.00000 27.04897 0.90876 33.01600 # H3
330 1 6 0.00000 27.23597 0.65176 28.45500 # N
331 1 6 0.00000 24.18997 0.65176 22.26500 # N
332 1 6 0.00000 28.80797 0.65176 26.88300 # N
333 1 6 0.00000 22.61797 0.65176 23.83700 # N
334 1 6 0.00000 31.12397 1.58176 24.76700 # N
335 1 6 0.00000 25.11997 3.15276 32.34300 # N
336 1 6 0.00000 25.11997 1.58176 30.77100 # N
337 1 6 0.00000 32.69597 3.15276 24.76700 # N
338 1 1 0.00000 25.61097 2.14876 1.93200 # C1
339 1 2 0.00000 27.50597 3.21776 2.03400 # C2
340 1 2 0.00000 27.50597 2.25076 3.00100 # C2
341 1 4 0.00000 28.26497 3.93976 1.77200 # H2
342 1 4 0.00000 28.26497 1.98876 3.72300 # H2
343 1 3 0.00000 24.27897 1.68076 1.46400 # C3
344 1 5 0.00000 23.70197 2.49876 1.03000 # H3
345 1 5 0.00000 23.70197 1.24676 2.28200 # H3
346 1 5 0.00000 24.37697 0.90876 0.69200 # H3
347 1 6 0.00000 26.30597 3.15276 1.36500 # N
348 1 6 0.00000 26.30597 1.58176 2.93600 # N
349 1 7 0.00000 25.71297 0.05876 12.60100 # Zn
350 1 7 0.00000 25.71297 0.05876 4.09500 # Zn
351 1 7 0.00000 29.96597 0.05876 8.34800 # Zn
352 1 1 0.00000 23.62297 0.16076 10.43800 # C1
353 1 1 0.00000 27.80297 0.16076 6.25800 # C1
354 1 1 0.00000 32.12797 2.14876 8.45000 # C1
355 1 1 0.00000 25.81497 2.14876 14.76300 # C1
356 1 1 0.00000 25.61097 2.14876 18.94400 # C1
357 1 2 0.00000 27.90497 1.85176 11.50700 # C2
358 1 2 0.00000 23.52097 1.85176 5.18900 # C2
359 1 2 0.00000 28.87197 1.85176 10.54000 # C2
360 1 2 0.00000 22.55397 1.85176 6.15600 # C2
361 1 2 0.00000 31.05897 2.25076 6.55500 # C2
362 1 2 0.00000 23.91997 3.21776 14.66200 # C2
363 1 2 0.00000 27.50597 3.21776 19.04599 # C2
364 1 2 0.00000 27.50597 2.25076 20.01300 # C2
365 1 2 0.00000 23.91997 2.25076 13.69400 # C2
366 1 2 0.00000 32.02697 3.21776 6.55500 # C2
367 1 4 0.00000 27.64397 2.60976 12.22900 # H2
368 1 4 0.00000 23.78197 2.60976 4.46600 # H2
369 1 4 0.00000 29.59397 2.60976 10.27900 # H2
370 1 4 0.00000 21.83097 2.60976 6.41700 # H2
371 1 4 0.00000 30.33697 1.98876 5.79600 # H2
372 1 4 0.00000 23.16097 3.93976 14.92300 # H2
373 1 4 0.00000 28.26497 3.93976 18.78400 # H2
374 1 4 0.00000 28.26497 1.98876 20.73500 # H2
375 1 4 0.00000 23.16097 1.98876 12.97200 # H2
376 1 4 0.00000 32.28797 3.93976 5.79600 # H2
377 1 3 0.00000 24.09097 1.49276 9.97000 # C3
378 1 3 0.00000 27.33497 1.49276 6.72600 # C3
379 1 3 0.00000 32.59697 1.68076 9.78200 # C3
380 1 3 0.00000 27.14697 1.68076 15.23200 # C3
381 1 3 0.00000 24.27897 1.68076 18.47599 # C3
382 1 5 0.00000 26.90097 2.06876 5.90700 # H3
383 1 5 0.00000 24.52497 2.06876 10.78800 # H3
384 1 5 0.00000 23.27197 2.06876 9.53600 # H3
385 1 5 0.00000 28.15297 2.06876 7.16000 # H3
386 1 5 0.00000 31.77797 1.24676 10.35800 # H3
387 1 5 0.00000 27.72297 2.49876 15.66600 # H3
388 1 5 0.00000 23.70197 2.49876 18.04200 # H3
389 1 5 0.00000 27.72297 1.24676 14.41300 # H3
390 1 5 0.00000 23.70197 1.24676 19.29399 # H3
391 1 5 0.00000 33.03097 2.49876 10.35800 # H3
392 1 5 0.00000 26.56297 1.39476 7.49800 # H3
393 1 5 0.00000 24.86297 1.39476 9.19800 # H3
394 1 5 0.00000 33.36897 0.90876 9.68400 # H3
395 1 5 0.00000 27.04897 0.90876 16.00399 # H3
396 1 5 0.00000 24.37697 0.90876 17.70400 # H3
397 1 6 0.00000 27.23597 0.65176 11.44300 # N
398 1 6 0.00000 24.18997 0.65176 5.25300 # N
399 1 6 0.00000 28.80797 0.65176 9.87100 # N
400 1 6 0.00000 22.61797 0.65176 6.82500 # N
401 1 6 0.00000 31.12397 1.58176 7.75500 # N
402 1 6 0.00000 25.11997 3.15276 15.33100 # N
403 1 6 0.00000 26.30597 3.15276 18.37700 # N
404 1 6 0.00000 26.30597 1.58176 19.94799 # N
405 1 6 0.00000 25.11997 1.58176 13.75900 # N
406 1 6 0.00000 32.69597 3.15276 7.75500 # N
407 1 7 0.00000 25.71297 17.07076 29.61300 # Zn
408 1 7 0.00000 25.71297 17.07076 21.10700 # Zn
409 1 7 0.00000 29.96597 8.56476 33.86600 # Zn
410 1 7 0.00000 21.45997 8.56476 33.86600 # Zn
411 1 7 0.00000 25.71297 12.81776 33.86600 # Zn
412 1 7 0.00000 25.71297 4.31176 33.86600 # Zn
413 1 7 0.00000 29.96597 17.07076 25.36000 # Zn
414 1 1 0.00000 23.62297 17.17276 27.45000 # C1
415 1 1 0.00000 27.80297 16.96875 27.45000 # C1
416 1 1 0.00000 27.80297 17.17276 23.27000 # C1
417 1 1 0.00000 23.62297 16.96875 23.27000 # C1
418 1 1 0.00000 27.80297 6.47476 33.96800 # C1
419 1 1 0.00000 27.80297 10.65476 33.76400 # C1
420 1 1 0.00000 23.62297 10.65476 33.96800 # C1
421 1 1 0.00000 23.62297 6.47476 33.76400 # C1
422 1 1 0.00000 32.12797 8.46276 31.77500 # C1
423 1 1 0.00000 32.12797 19.16076 25.46200 # C1
424 1 1 0.00000 32.12797 14.97976 25.25800 # C1
425 1 1 0.00000 25.81497 19.16076 31.77500 # C1
426 1 1 0.00000 25.61097 14.97976 31.77500 # C1
427 1 2 0.00000 23.52097 15.27776 28.51900 # C2
428 1 2 0.00000 27.90497 18.86376 28.51900 # C2
429 1 2 0.00000 27.90497 15.27776 22.20100 # C2
430 1 2 0.00000 23.52097 18.86376 22.20100 # C2
431 1 2 0.00000 28.87197 6.37276 32.07300 # C2
432 1 2 0.00000 22.55397 10.75676 32.07300 # C2
433 1 2 0.00000 32.42597 11.72376 23.16800 # C2
434 1 2 0.00000 32.42597 5.40576 27.55200 # C2
435 1 2 0.00000 32.42597 6.37276 28.51900 # C2
436 1 2 0.00000 32.42597 10.75676 22.20100 # C2
437 1 2 0.00000 23.52097 11.72376 32.07300 # C2
438 1 2 0.00000 27.90497 5.40576 32.07300 # C2
439 1 2 0.00000 28.87197 15.27776 23.16800 # C2
440 1 2 0.00000 28.87197 18.86376 27.55200 # C2
441 1 2 0.00000 22.55397 15.27776 27.55200 # C2
442 1 2 0.00000 22.55397 18.86376 23.16800 # C2
443 1 2 0.00000 32.02697 10.35776 30.70600 # C2
444 1 2 0.00000 31.05897 19.26275 23.56700 # C2
445 1 2 0.00000 31.05897 14.87876 27.15300 # C2
446 1 2 0.00000 23.91997 20.22976 31.67400 # C2
447 1 2 0.00000 27.50597 13.91076 31.67400 # C2
448 1 2 0.00000 23.91997 19.26275 30.70600 # C2
449 1 2 0.00000 27.50597 14.87876 30.70600 # C2
450 1 2 0.00000 32.02697 20.22976 23.56700 # C2
451 1 2 0.00000 32.02697 13.91076 27.15300 # C2
452 1 2 0.00000 31.05897 10.35776 31.67400 # C2
453 1 4 0.00000 23.78197 14.51876 29.24100 # H2
454 1 4 0.00000 27.64397 19.62175 29.24100 # H2
455 1 4 0.00000 27.64397 14.51876 21.47800 # H2
456 1 4 0.00000 23.78197 19.62175 21.47800 # H2
457 1 4 0.00000 29.59397 6.63376 31.31400 # H2
458 1 4 0.00000 21.83097 10.49576 31.31400 # H2
459 1 4 0.00000 31.66697 12.44576 23.42900 # H2
460 1 4 0.00000 31.66697 4.68276 27.29100 # H2
461 1 4 0.00000 31.66697 6.63376 29.24100 # H2
462 1 4 0.00000 31.66697 10.49576 21.47800 # H2
463 1 4 0.00000 23.78197 12.44576 31.31400 # H2
464 1 4 0.00000 27.64397 4.68276 31.31400 # H2
465 1 4 0.00000 29.59397 14.51876 23.42900 # H2
466 1 4 0.00000 29.59397 19.62175 27.29100 # H2
467 1 4 0.00000 21.83097 14.51876 27.29100 # H2
468 1 4 0.00000 21.83097 19.62175 23.42900 # H2
469 1 4 0.00000 32.28797 11.11676 29.98400 # H2
470 1 4 0.00000 30.33697 19.00076 22.80800 # H2
471 1 4 0.00000 30.33697 15.13976 27.91200 # H2
472 1 4 0.00000 23.16097 20.95176 31.93500 # H2
473 1 4 0.00000 28.26497 13.18876 31.93500 # H2
474 1 4 0.00000 23.16097 19.00076 29.98400 # H2
475 1 4 0.00000 28.26497 15.13976 29.98400 # H2
476 1 4 0.00000 32.28797 20.95176 22.80800 # H2
477 1 4 0.00000 32.28797 13.18876 27.91200 # H2
478 1 4 0.00000 30.33697 11.11676 31.93500 # H2
479 1 3 0.00000 24.09097 18.50476 26.98200 # C3
480 1 3 0.00000 27.33497 15.63675 26.98200 # C3
481 1 3 0.00000 27.33497 18.50476 23.73800 # C3
482 1 3 0.00000 24.09097 15.63675 23.73800 # C3
483 1 3 0.00000 27.33497 10.18676 32.43200 # C3
484 1 3 0.00000 24.09097 6.94276 32.43200 # C3
485 1 3 0.00000 32.78497 10.18676 26.98200 # C3
486 1 3 0.00000 32.78497 6.94276 23.73800 # C3
487 1 3 0.00000 32.59697 7.13076 32.24400 # C3
488 1 3 0.00000 32.59697 18.69275 26.79400 # C3
489 1 3 0.00000 32.59697 15.44876 23.92600 # C3
490 1 3 0.00000 27.14697 18.69275 32.24400 # C3
491 1 3 0.00000 24.27897 15.44876 32.24400 # C3
492 1 5 0.00000 26.90097 19.08075 22.91900 # H3
493 1 5 0.00000 24.52497 15.05976 22.91900 # H3
494 1 5 0.00000 24.52497 19.08075 27.80000 # H3
495 1 5 0.00000 26.90097 15.05976 27.80000 # H3
496 1 5 0.00000 23.27197 7.37676 31.85500 # H3
497 1 5 0.00000 28.15297 9.75276 31.85500 # H3
498 1 5 0.00000 32.20797 6.12376 24.17200 # H3
499 1 5 0.00000 32.20797 11.00476 26.54800 # H3
500 1 5 0.00000 32.20797 7.37676 22.91900 # H3
501 1 5 0.00000 32.20797 9.75276 27.80000 # H3
502 1 5 0.00000 24.52497 6.12376 31.85500 # H3
503 1 5 0.00000 26.90097 11.00476 31.85500 # H3
504 1 5 0.00000 23.27197 19.08075 26.54800 # H3
505 1 5 0.00000 23.27197 15.05976 24.17200 # H3
506 1 5 0.00000 28.15297 19.08075 24.17200 # H3
507 1 5 0.00000 28.15297 15.05976 26.54800 # H3
508 1 5 0.00000 33.03097 6.55376 31.42500 # H3
509 1 5 0.00000 31.77797 18.25875 27.37000 # H3
510 1 5 0.00000 31.77797 15.88276 23.34900 # H3
511 1 5 0.00000 23.70197 14.62976 32.67800 # H3
512 1 5 0.00000 27.72297 19.51075 32.67800 # H3
513 1 5 0.00000 27.72297 18.25875 31.42500 # H3
514 1 5 0.00000 23.70197 15.88276 31.42500 # H3
515 1 5 0.00000 33.03097 14.62976 23.34900 # H3
516 1 5 0.00000 33.03097 19.51075 27.37000 # H3
517 1 5 0.00000 31.77797 6.55376 32.67800 # H3
518 1 5 0.00000 26.56297 18.40676 24.51000 # H3
519 1 5 0.00000 24.86297 15.73475 24.51000 # H3
520 1 5 0.00000 24.86297 18.40676 26.21000 # H3
521 1 5 0.00000 26.56297 15.73475 26.21000 # H3
522 1 5 0.00000 24.86297 7.71476 32.53000 # H3
523 1 5 0.00000 26.56297 9.41476 32.53000 # H3
524 1 5 0.00000 32.88297 7.71476 24.51000 # H3
525 1 5 0.00000 32.88297 9.41476 26.21000 # H3
526 1 5 0.00000 33.36897 7.22876 33.01600 # H3
527 1 5 0.00000 33.36897 17.92076 26.69600 # H3
528 1 5 0.00000 33.36897 16.22075 24.02400 # H3
529 1 5 0.00000 24.37697 16.22075 33.01600 # H3
530 1 5 0.00000 27.04897 17.92076 33.01600 # H3
531 1 6 0.00000 24.18997 16.47776 28.45500 # N
532 1 6 0.00000 27.23597 17.66375 28.45500 # N
533 1 6 0.00000 27.23597 16.47776 22.26500 # N
534 1 6 0.00000 24.18997 17.66375 22.26500 # N
535 1 6 0.00000 28.80797 7.04176 33.27300 # N
536 1 6 0.00000 22.61797 10.08776 33.27300 # N
537 1 6 0.00000 33.62597 11.65976 23.83700 # N
538 1 6 0.00000 33.62597 5.46976 26.88300 # N
539 1 6 0.00000 33.62597 7.04176 28.45500 # N
540 1 6 0.00000 33.62597 10.08776 22.26500 # N
541 1 6 0.00000 24.18997 11.65976 33.27300 # N
542 1 6 0.00000 27.23597 5.46976 33.27300 # N
543 1 6 0.00000 28.80797 16.47776 23.83700 # N
544 1 6 0.00000 28.80797 17.66375 26.88300 # N
545 1 6 0.00000 22.61797 16.47776 26.88300 # N
546 1 6 0.00000 22.61797 17.66375 23.83700 # N
547 1 6 0.00000 32.69597 9.15776 30.77100 # N
548 1 6 0.00000 31.12397 18.59375 24.76700 # N
549 1 6 0.00000 31.12397 15.54776 25.95300 # N
550 1 6 0.00000 25.11997 20.16475 32.34300 # N
551 1 6 0.00000 26.30597 13.97576 32.34300 # N
552 1 6 0.00000 25.11997 18.59375 30.77100 # N
553 1 6 0.00000 26.30597 15.54776 30.77100 # N
554 1 6 0.00000 32.69597 20.16475 24.76700 # N
555 1 6 0.00000 32.69597 13.97576 25.95300 # N
556 1 6 0.00000 31.12397 9.15776 32.34300 # N
557 1 1 0.00000 32.12797 8.66676 1.93200 # C1
558 1 1 0.00000 25.61097 19.16076 1.93200 # C1
559 1 1 0.00000 25.81497 14.97976 1.93200 # C1
560 1 2 0.00000 28.87197 10.75676 1.63500 # C2
561 1 2 0.00000 22.55397 6.37276 1.63500 # C2
562 1 2 0.00000 27.90497 11.72376 1.63500 # C2
563 1 2 0.00000 23.52097 5.40576 1.63500 # C2
564 1 2 0.00000 32.02697 6.77176 3.00100 # C2
565 1 2 0.00000 27.50597 20.22976 2.03400 # C2
566 1 2 0.00000 23.91997 13.91076 2.03400 # C2
567 1 2 0.00000 23.91997 14.87876 3.00100 # C2
568 1 2 0.00000 27.50597 19.26275 3.00100 # C2
569 1 2 0.00000 31.05897 6.77176 2.03400 # C2
570 1 4 0.00000 29.59397 10.49576 2.39300 # H2
571 1 4 0.00000 21.83097 6.63376 2.39300 # H2
572 1 4 0.00000 27.64397 12.44576 2.39300 # H2
573 1 4 0.00000 23.78197 4.68276 2.39300 # H2
574 1 4 0.00000 32.28797 6.01276 3.72300 # H2
575 1 4 0.00000 28.26497 20.95176 1.77200 # H2
576 1 4 0.00000 23.16097 13.18876 1.77200 # H2
577 1 4 0.00000 23.16097 15.13976 3.72300 # H2
578 1 4 0.00000 28.26497 19.00076 3.72300 # H2
579 1 4 0.00000 30.33697 6.01276 1.77200 # H2
580 1 3 0.00000 27.33497 6.94276 1.27600 # C3
581 1 3 0.00000 24.09097 10.18676 1.27600 # C3
582 1 3 0.00000 32.59697 9.99876 1.46400 # C3
583 1 3 0.00000 24.27897 18.69275 1.46400 # C3
584 1 3 0.00000 27.14697 15.44876 1.46400 # C3
585 1 5 0.00000 23.27197 9.75276 1.85200 # H3
586 1 5 0.00000 28.15297 7.37676 1.85200 # H3
587 1 5 0.00000 26.90097 6.12376 1.85200 # H3
588 1 5 0.00000 24.52497 11.00476 1.85200 # H3
589 1 5 0.00000 33.03097 10.57476 2.28200 # H3
590 1 5 0.00000 27.72297 14.62976 1.03000 # H3
591 1 5 0.00000 23.70197 19.51075 1.03000 # H3
592 1 5 0.00000 27.72297 15.88276 2.28200 # H3
593 1 5 0.00000 23.70197 18.25875 2.28200 # H3
594 1 5 0.00000 31.77797 10.57476 1.03000 # H3
595 1 5 0.00000 24.86297 9.41476 1.17800 # H3
596 1 5 0.00000 26.56297 7.71476 1.17800 # H3
597 1 5 0.00000 33.36897 9.90076 0.69200 # H3
598 1 5 0.00000 27.04897 16.22075 0.69200 # H3
599 1 5 0.00000 24.37697 17.92076 0.69200 # H3
600 1 6 0.00000 28.80797 10.08776 0.43500 # N
601 1 6 0.00000 22.61797 7.04176 0.43500 # N
602 1 6 0.00000 27.23597 11.65976 0.43500 # N
603 1 6 0.00000 24.18997 5.46976 0.43500 # N
604 1 6 0.00000 32.69597 7.97176 2.93600 # N
605 1 6 0.00000 26.30597 20.16475 1.36500 # N
606 1 6 0.00000 25.11997 13.97576 1.36500 # N
607 1 6 0.00000 25.11997 15.54776 2.93600 # N
608 1 6 0.00000 26.30597 18.59375 2.93600 # N
609 1 6 0.00000 31.12397 7.97176 1.36500 # N
610 1 7 0.00000 25.71297 17.07076 12.60100 # Zn
611 1 7 0.00000 25.71297 17.07076 4.09500 # Zn
612 1 7 0.00000 29.96597 8.56476 16.85400 # Zn
613 1 7 0.00000 21.45997 8.56476 16.85400 # Zn
614 1 7 0.00000 25.71297 12.81776 16.85400 # Zn
615 1 7 0.00000 25.71297 4.31176 16.85400 # Zn
616 1 7 0.00000 29.96597 17.07076 8.34800 # Zn
617 1 1 0.00000 23.62297 17.17276 10.43800 # C1
618 1 1 0.00000 27.80297 16.96875 10.43800 # C1
619 1 1 0.00000 27.80297 17.17276 6.25800 # C1
620 1 1 0.00000 23.62297 16.96875 6.25800 # C1
621 1 1 0.00000 27.80297 6.47476 16.95600 # C1
622 1 1 0.00000 27.80297 10.65476 16.75200 # C1
623 1 1 0.00000 23.62297 10.65476 16.95600 # C1
624 1 1 0.00000 23.62297 6.47476 16.75200 # C1