LAMMPS data file via write_data, version 22 Jul 2025, timestep = 100, units = real

56 atoms
3 atom types
42 bonds
2 bond types
42 angles
2 angle types

-50 50 xlo xhi
-50 50 ylo yhi
-50 50 zlo zhi

Masses

1 15.999
2 1e-05
3 1.008

Pair Coeffs # lj/cut/coul/long

1 0.155062 3.154
2 0 0
3 0 0

Bond Coeffs # harmonic

1 0 0.15
2 0 0.9572

Angle Coeffs # harmonic

1 0 52.26
2 0 104.52

Atoms # full

1017444 2 3 0.5564 -35.370165692692396 41.35496531087325 -25.891805493071853 0 0 0
668303 1 3 0.5564 -37.87220792466301 42.13772452342193 -25.43472781903533 0 0 0
1017441 2 1 0 -34.491998560922774 41.17810096702579 -26.22910925776251 0 0 0
668304 1 3 0.5564 -37.346700850731374 41.18044578173034 -24.386226542199143 0 0 0
1057660 5 3 0.5564 -37.713369075001275 38.95369748561567 15.079535904988298 0 0 0
1057659 5 3 0.5564 -38.47742375221013 38.682150537181684 16.357963809332322 0 0 0
1057658 5 2 -1.1128 -37.850738893633874 39.11215725330799 15.927467278955726 0 0 0
1057657 5 1 0 -37.766544958063335 39.213411553875694 15.999293082360662 0 0 0
1017442 2 2 -1.1128 -34.61682824263055 41.098018650098055 -26.251567469741598 0 0 0
1017443 2 3 0.5564 -34.588971838238734 40.37565270513834 -26.741851482172724 0 0 0
668301 1 1 0 -37.09627074079337 41.63256461826962 -25.191897476763852 0 0 0
668302 1 2 -1.1128 -37.227658133474314 41.63935449537746 -25.119847155331936 0 0 0
1057644 3 3 0.5564 12.553761810814152 -42.988864308226105 -12.94524953306002 0 0 0
1057643 3 3 0.5564 13.003737061709034 -43.399544096613006 -11.559334821915582 0 0 0
1057642 3 2 -1.1128 13.176714411081973 -43.28130338022892 -12.4073117792332 0 0 0
1057641 3 1 0 13.313665870197461 -43.311276827598604 -12.460658648906978 0 0 0
1057656 4 3 0.5564 -48.18537168133223 35.89819835289632 1.4438839916921316 0 0 0
1057655 4 3 0.5564 -47.35097436043348 35.207170499328164 2.5013133359246242 0 0 0
1057654 4 2 -1.1128 -47.405542256387015 35.65574845029989 1.7538060669419289 0 0 0
1057653 4 1 0 -47.28075033811952 35.69121578484601 1.6785130159983843 0 0 0
1057716 11 3 0.5564 -16.66314785985802 1.5973430946020108 2.561323488567285 0 0 0
1057715 11 3 0.5564 -17.65717085270259 1.4272169100955692 1.4322218223672918 0 0 0
1057714 11 2 -1.1128 -16.895391502997473 1.2224329795576918 1.807352086015889 0 0 0
1057713 11 1 0 -16.80427701569505 1.1226881201493377 1.7421668773386139 0 0 0
1057712 10 3 0.5564 -19.265537291591965 45.48114462556244 37.97022081788421 0 0 0
1057711 10 3 0.5564 -18.263230408689477 46.58701526061683 37.716594611460884 0 0 0
1057710 10 2 -1.1128 -18.967779259702034 46.28546212846706 38.135693138750476 0 0 0
1057709 10 1 0 -19.037773687677518 46.37197014890083 38.23627713677248 0 0 0
1057673 6 1 0 41.32697658700253 -39.25925614059514 8.60463950662831 0 0 0
1057674 6 2 -1.1128 41.201502560056454 -39.28118729901712 8.525422771923562 0 0 0
1057675 6 3 0.5564 40.82011304033871 -38.60917115613656 8.118110497978664 0 0 0
1057676 6 3 0.5564 40.853666250588205 -40.08066235970096 8.47234632548421 0 0 0
1057692 7 3 0.5564 49.544423893832715 45.010543662668425 -43.79819588157951 -1 0 0
1057691 7 3 0.5564 -49.2575242407938 44.583565125840195 -44.619326966447886 0 0 0
1057690 7 2 -1.1128 -49.63306385014745 44.719903050127606 -43.842571584904725 0 0 0
1057689 7 1 0 -49.55615562363254 44.69335306995954 -43.7165548342226 0 0 0
1057693 8 1 0 -21.825332217767702 -33.16490455846949 27.03483040739952 0 0 0
1057694 8 2 -1.1128 -21.85458109974956 -33.31061461159122 27.01450600022124 0 0 0
1057695 8 3 0.5564 -22.145261594203536 -33.59305288629864 26.240748659918065 0 0 0
1057696 8 3 0.5564 -21.733888542732775 -33.87500899150854 27.67014299628312 0 0 0
1057704 9 3 0.5564 -37.83462668680427 -44.65748229567765 31.136487408854826 0 0 0
1057703 9 3 0.5564 -38.562028457763915 -45.95108319275066 30.837524895701982 0 0 0
1057702 9 2 -1.1128 -38.439867615195816 -45.25142373680384 31.345973835907383 0 0 0
1057701 9 1 0 -38.52298860589936 -45.233233389990424 31.469505250504422 0 0 0
1057717 12 1 0 -38.36238879146978 16.828291714135396 -37.75991206199821 0 0 0
1057718 12 2 -1.1128 -38.406839078236956 16.73696526666546 -37.870291635307375 0 0 0
1057719 12 3 0.5564 -37.85948180636658 16.132144394728172 -38.18263548485206 0 0 0
1057720 12 3 0.5564 -39.21253108464183 16.811018597480018 -38.199448246994116 0 0 0
1057721 13 1 0 -38.074707932900225 -44.15542535651574 38.60303252295443 0 0 0
1057722 13 2 -1.1128 -38.077782822014456 -44.26993343633327 38.5061901617765 0 0 0
1057723 13 3 0.5564 -37.36748622056362 -44.46186386340028 38.035437148316134 0 0 0
1057724 13 3 0.5564 -38.80595030861439 -44.74349693091653 38.41411786375281 0 0 0
1057725 14 1 0 -4.5338979802105355 24.71800247999631 8.682220071567853 0 0 0
1057726 14 2 -1.1128 -4.598432863826798 24.646287573483672 8.567362685276876 0 0 0
1057727 14 3 0.5564 -4.142615466285536 24.49186282082821 7.838424796005942 0 0 0
1057728 14 3 0.5564 -5.429312197470328 24.383922420341285 8.62877635922011 0 0 0

Velocities

1017444 -0.002421267748985247 0.0011643533993947837 -0.00871763568721817
668303 -0.00576838668348279 -0.002793215626251712 0.004843557562638207
1017441 -0.0014323032480122618 -0.0007602913153139229 -0.005133693643296692
668304 0.0077277714455795945 -0.0017487592109369926 -0.0009671083653060204
1057660 -0.0021138948025108224 -0.0009788122939305565 0.00596028347501902
1057659 -0.0021138948025108224 -0.0009788122939305565 0.00596028347501902
1057658 -0.0021138948025108224 -0.0009788122939305565 0.00596028347501902
1057657 -0.0021138948025108224 -0.0009788122939305565 0.00596028347501902
1017442 -0.0012889707453275223 -0.0010963690978047524 -0.004731981485192122
1017443 0.000676341148361003 -0.005310298601082182 0.0015883259527962462
668301 0.0007583386162396472 0.005298458209283428 0.000821244483727518
668302 0.0008150106319235427 0.0033604978527954346 0.0011072182397027371
1057644 0.0020557597388887617 0.005539986837318369 0.0019316576235304925
1057643 0.0020557597388887617 0.005539986837318369 0.0019316576235304925
1057642 0.0020557597388887617 0.005539986837318369 0.0019316576235304925
1057641 0.0020557597388887617 0.005539986837318369 0.0019316576235304925
1057656 0.0026970658073360355 0.001963265863607253 -0.0019018436746551194
1057655 0.0026970658073360355 0.001963265863607253 -0.0019018436746551194
1057654 0.0026970658073360355 0.001963265863607253 -0.0019018436746551194
1057653 0.0026970658073360355 0.001963265863607253 -0.0019018436746551194
1057716 -0.0005554138937310046 0.00041975589496569824 0.0027004547153962346
1057715 -0.0005554138937310046 0.00041975589496569824 0.0027004547153962346
1057714 -0.0005554138937310046 0.00041975589496569824 0.0027004547153962346
1057713 -0.0005554138937310046 0.00041975589496569824 0.0027004547153962346
1057712 -0.0019087469340250108 0.001346071378589617 -0.0044468844988773135
1057711 -0.0019087469340250108 0.001346071378589617 -0.0044468844988773135
1057710 -0.0019087469340250108 0.001346071378589617 -0.0044468844988773135
1057709 -0.0019087469340250108 0.001346071378589617 -0.0044468844988773135
1057673 -0.0017592139720997864 0.0021077902498217987 0.0004131425203896024
1057674 -0.0017592139720997864 0.0021077902498217987 0.0004131425203896024
1057675 -0.0017592139720997864 0.0021077902498217987 0.0004131425203896024
1057676 -0.0017592139720997864 0.0021077902498217987 0.0004131425203896024
1057692 0.0007561855827075083 -0.0027885051537907346 -0.0003154565075123181
1057691 0.0007561855827075083 -0.0027885051537907346 -0.0003154565075123181
1057690 0.0007561855827075083 -0.0027885051537907346 -0.0003154565075123181
1057689 0.0007561855827075083 -0.0027885051537907346 -0.0003154565075123181
1057693 0.00443129126744366 -0.0011102029386046977 -0.005388650222666313
1057694 0.00443129126744366 -0.0011102029386046977 -0.005388650222666313
1057695 0.00443129126744366 -0.0011102029386046977 -0.005388650222666313
1057696 0.00443129126744366 -0.0011102029386046977 -0.005388650222666313
1057704 0.004503735514773564 0.0014169826541374688 0.003846085888099798
1057703 0.004503735514773564 0.0014169826541374688 0.003846085888099798
1057702 0.004503735514773564 0.0014169826541374688 0.003846085888099798
1057701 0.004503735514773564 0.0014169826541374688 0.003846085888099798
1057717 0.0012109004847920526 -0.005107752682360744 -0.0022986966993001267
1057718 0.0012109004847920526 -0.005107752682360744 -0.0022986966993001267
1057719 0.0012109004847920526 -0.005107752682360744 -0.0022986966993001267
1057720 0.0012109004847920526 -0.005107752682360744 -0.0022986966993001267
1057721 0.00568139042140819 -0.002055033562769347 -0.001669891035748966
1057722 0.00568139042140819 -0.002055033562769347 -0.001669891035748966
1057723 0.00568139042140819 -0.002055033562769347 -0.001669891035748966
1057724 0.00568139042140819 -0.002055033562769347 -0.001669891035748966
1057725 0.0007999338354478329 0.011060780865675838 -0.005198008300207404
1057726 0.0007999338354478329 0.011060780865675838 -0.005198008300207404
1057727 0.0007999338354478329 0.011060780865675838 -0.005198008300207404
1057728 0.0007999338354478329 0.011060780865675838 -0.005198008300207404

Bonds

1 1 1017441 1017442
2 2 1017441 1017444
3 2 1017441 1017443
4 1 1057657 1057658
5 2 1057657 1057660
6 2 1057657 1057659
7 1 668301 668302
8 2 668301 668304
9 2 668301 668303
10 1 1057641 1057642
11 2 1057641 1057644
12 2 1057641 1057643
13 1 1057653 1057654
14 2 1057653 1057656
15 2 1057653 1057655
16 1 1057713 1057714
17 2 1057713 1057716
18 2 1057713 1057715
19 1 1057709 1057710
20 2 1057709 1057712
21 2 1057709 1057711
22 1 1057673 1057674
23 2 1057673 1057676
24 2 1057673 1057675
25 1 1057689 1057690
26 2 1057689 1057692
27 2 1057689 1057691
28 1 1057693 1057694
29 2 1057693 1057696
30 2 1057693 1057695
31 1 1057701 1057702
32 2 1057701 1057704
33 2 1057701 1057703
34 1 1057717 1057718
35 2 1057717 1057720
36 2 1057717 1057719
37 1 1057721 1057722
38 2 1057721 1057724
39 2 1057721 1057723
40 1 1057725 1057726
41 2 1057725 1057728
42 2 1057725 1057727

Angles

1 1 1017442 1017441 1017444
2 1 1017442 1017441 1017443
3 2 1017444 1017441 1017443
4 1 1057658 1057657 1057660
5 1 1057658 1057657 1057659
6 2 1057660 1057657 1057659
7 1 668302 668301 668304
8 1 668302 668301 668303
9 2 668304 668301 668303
10 1 1057642 1057641 1057644
11 1 1057642 1057641 1057643
12 2 1057644 1057641 1057643
13 1 1057654 1057653 1057656
14 1 1057654 1057653 1057655
15 2 1057656 1057653 1057655
16 1 1057714 1057713 1057716
17 1 1057714 1057713 1057715
18 2 1057716 1057713 1057715
19 1 1057710 1057709 1057712
20 1 1057710 1057709 1057711
21 2 1057712 1057709 1057711
22 1 1057674 1057673 1057676
23 1 1057674 1057673 1057675
24 2 1057676 1057673 1057675
25 1 1057690 1057689 1057692
26 1 1057690 1057689 1057691
27 2 1057692 1057689 1057691
28 1 1057694 1057693 1057696
29 1 1057694 1057693 1057695
30 2 1057696 1057693 1057695
31 1 1057702 1057701 1057704
32 1 1057702 1057701 1057703
33 2 1057704 1057701 1057703
34 1 1057718 1057717 1057720
35 1 1057718 1057717 1057719
36 2 1057720 1057717 1057719
37 1 1057722 1057721 1057724
38 1 1057722 1057721 1057723
39 2 1057724 1057721 1057723
40 1 1057726 1057725 1057728
41 1 1057726 1057725 1057727
42 2 1057728 1057725 1057727
