LAMMPS data file via write_data, version 27 Jun 2024, timestep = 100, units = real

60 atoms
3 atom types
45 bonds
2 bond types
45 angles
2 angle types

-50 50 xlo xhi
-50 50 ylo yhi
-50 50 zlo zhi

Masses

1 15.999
2 1e-05
3 1.008

Pair Coeffs # lj/cut/coul/long

1 0.155062 3.154
2 0 0
3 0 0

Bond Coeffs # harmonic

1 0 0.15
2 0 0.9572

Angle Coeffs # harmonic

1 0 52.26
2 0 104.52

Atoms # full

1043912 4 3 0.5564 23.25438927428476 19.86905796043895 1.4760266643689044 0 0 0
1043911 4 3 0.5564 24.381486922451753 20.365244591257394 0.5954899414166694 0 0 0
1043910 4 2 -1.1128 24.107619605382705 19.922381353417286 1.2967999982103342 0 0 0
1043909 4 1 0 24.207307532008684 19.85535531721283 1.3866322082510985 0 0 0
1043944 6 3 0.5564 -48.18537168133223 35.89819835289632 1.4438839916921316 0 0 0
1043943 6 3 0.5564 -47.35097436043348 35.207170499328164 2.5013133359246242 0 0 0
1043942 6 2 -1.1128 -47.405542256387015 35.65574845029989 1.7538060669419289 0 0 0
1043941 6 1 0 -47.28075033811952 35.69121578484601 1.6785130159983843 0 0 0
1043932 5 3 0.5564 32.89435781807594 -46.280902107610316 16.150644493833337 0 0 0
1043931 5 3 0.5564 33.354055835039226 -47.280277764359575 15.11053813798746 0 0 0
1043930 5 2 -1.1128 33.53465594089889 -46.73786532156782 15.770946567837436 0 0 0
1043929 5 1 0 33.6759035883683 -46.72316244454529 15.819246937366998 0 0 0
1039837 3 1 0 -31.71437203941325 39.177327673888655 -25.965841732327256 0 0 0
1039838 3 2 -1.1128 -31.692226190695756 39.31627065484491 -25.913837812930268 0 0 0
1039839 3 3 0.5564 -32.12038062151202 39.58904003822899 -25.203030105171393 0 0 0
1039840 3 3 0.5564 -31.135365404757852 39.85100546989448 -26.32241133466787 0 0 0
1017442 2 2 -1.1128 -34.61682824263055 41.098018650098055 -26.251567469741598 0 0 0
1017443 2 3 0.5564 -34.588971838238734 40.37565270513834 -26.741851482172724 0 0 0
668301 1 1 0 -37.09627074079337 41.63256461826962 -25.191897476763852 0 0 0
668302 1 2 -1.1128 -37.227658133474314 41.63935449537746 -25.119847155331936 0 0 0
668304 1 3 0.5564 -37.346700850731374 41.18044578173034 -24.386226542199143 0 0 0
1017441 2 1 0 -34.491998560922774 41.17810096702579 -26.22910925776251 0 0 0
668303 1 3 0.5564 -37.87220792466301 42.13772452342193 -25.43472781903533 0 0 0
1017444 2 3 0.5564 -35.370165692692396 41.35496531087325 -25.891805493071853 0 0 0
1044000 12 3 0.5564 -16.66314785985802 1.5973430946020108 2.561323488567285 0 0 0
1043999 12 3 0.5564 -17.65717085270259 1.4272169100955692 1.4322218223672918 0 0 0
1043998 12 2 -1.1128 -16.895391502997473 1.2224329795576918 1.807352086015889 0 0 0
1043997 12 1 0 -16.80427701569505 1.1226881201493377 1.7421668773386139 0 0 0
1043996 11 3 0.5564 -19.265537291591965 45.48114462556244 37.97022081788421 0 0 0
1043995 11 3 0.5564 -18.263230408689477 46.58701526061683 37.716594611460884 0 0 0
1043994 11 2 -1.1128 -18.967779259702034 46.28546212846706 38.135693138750476 0 0 0
1043993 11 1 0 -19.037773687677518 46.37197014890083 38.23627713677248 0 0 0
1043973 7 1 0 31.827311786974164 -29.59129115197668 30.981687200611642 0 0 0
1043974 7 2 -1.1128 31.83395652649089 -29.513446299359984 31.10973416294545 0 0 0
1043975 7 3 0.5564 32.37535034477272 -29.767179809365466 31.746506484874786 0 0 0
1043976 7 3 0.5564 31.331179932354143 -28.807296821451267 31.217140825886105 0 0 0
1043977 8 1 0 -21.825332217767702 -33.16490455846949 27.03483040739952 0 0 0
1043978 8 2 -1.1128 -21.85458109974956 -33.31061461159122 27.01450600022124 0 0 0
1043979 8 3 0.5564 -22.145261594203536 -33.59305288629864 26.240748659918065 0 0 0
1043980 8 3 0.5564 -21.733888542732775 -33.87500899150854 27.67014299628312 0 0 0
1043988 9 3 0.5564 -37.83462668680427 -44.65748229567765 31.136487408854826 0 0 0
1043987 9 3 0.5564 -38.562028457763915 -45.95108319275066 30.837524895701982 0 0 0
1043986 9 2 -1.1128 -38.439867615195816 -45.25142373680384 31.345973835907383 0 0 0
1043985 9 1 0 -38.52298860589936 -45.233233389990424 31.469505250504422 0 0 0
1043989 10 1 0 1.3471607944431043 -0.8699710606846567 19.36471254917182 0 0 0
1043990 10 2 -1.1128 1.2324606112867722 -0.9052368436532879 19.274711489508118 0 0 0
1043991 10 3 0.5564 1.380566284924026 -1.3297905453586152 18.52585515191491 0 0 0
1043992 10 3 0.5564 0.41774425032932916 -0.6856391669427624 19.500502746154936 0 0 0
1044001 13 1 0 -38.36238879146978 16.828291714135396 -37.75991206199821 0 0 0
1044002 13 2 -1.1128 -38.406839078236956 16.73696526666546 -37.870291635307375 0 0 0
1044003 13 3 0.5564 -37.85948180636658 16.132144394728172 -38.18263548485206 0 0 0
1044004 13 3 0.5564 -39.21253108464183 16.811018597480018 -38.199448246994116 0 0 0
1044005 14 1 0 -38.074707932900225 -44.15542535651574 38.60303252295443 0 0 0
1044006 14 2 -1.1128 -38.077782822014456 -44.26993343633327 38.5061901617765 0 0 0
1044007 14 3 0.5564 -37.36748622056362 -44.46186386340028 38.035437148316134 0 0 0
1044008 14 3 0.5564 -38.80595030861439 -44.74349693091653 38.41411786375281 0 0 0
1044009 15 1 0 -4.5338979802105355 24.71800247999631 8.682220071567853 0 0 0
1044010 15 2 -1.1128 -4.598432863826798 24.646287573483672 8.567362685276876 0 0 0
1044011 15 3 0.5564 -4.142615466285536 24.49186282082821 7.838424796005942 0 0 0
1044012 15 3 0.5564 -5.429312197470328 24.383922420341285 8.62877635922011 0 0 0

Velocities

1043912 0.007373365484805919 -0.0008323444606669993 0.009751467977231
1043911 0.007373365484805919 -0.0008323444606669993 0.009751467977231
1043910 0.007373365484805919 -0.0008323444606669993 0.009751467977231
1043909 0.007373365484805919 -0.0008323444606669993 0.009751467977231
1043944 0.0026970658073360355 0.001963265863607253 -0.0019018436746551194
1043943 0.0026970658073360355 0.001963265863607253 -0.0019018436746551194
1043942 0.0026970658073360355 0.001963265863607253 -0.0019018436746551194
1043941 0.0026970658073360355 0.001963265863607253 -0.0019018436746551194
1043932 0.000416508181160033 -0.0005731327120655637 -0.002087631941392209
1043931 0.000416508181160033 -0.0005731327120655637 -0.002087631941392209
1043930 0.000416508181160033 -0.0005731327120655637 -0.002087631941392209
1043929 0.000416508181160033 -0.0005731327120655637 -0.002087631941392209
1039837 0.0005332040274411054 -0.0014618463968629136 -0.0024340964358752506
1039838 0.0005332040274411054 -0.0014618463968629136 -0.0024340964358752506
1039839 0.0005332040274411054 -0.0014618463968629136 -0.0024340964358752506
1039840 0.0005332040274411054 -0.0014618463968629136 -0.0024340964358752506
1017442 -0.0012889707453275223 -0.0010963690978047524 -0.004731981485192122
1017443 0.000676341148361003 -0.005310298601082182 0.0015883259527962462
668301 0.0007583386162396472 0.005298458209283428 0.000821244483727518
668302 0.0008150106319235427 0.0033604978527954346 0.0011072182397027371
668304 0.0077277714455795945 -0.0017487592109369926 -0.0009671083653060204
1017441 -0.0014323032480122618 -0.0007602913153139229 -0.005133693643296692
668303 -0.00576838668348279 -0.002793215626251712 0.004843557562638207
1017444 -0.002421267748985247 0.0011643533993947837 -0.00871763568721817
1044000 -0.0005554138937310046 0.00041975589496569824 0.0027004547153962346
1043999 -0.0005554138937310046 0.00041975589496569824 0.0027004547153962346
1043998 -0.0005554138937310046 0.00041975589496569824 0.0027004547153962346
1043997 -0.0005554138937310046 0.00041975589496569824 0.0027004547153962346
1043996 -0.0019087469340250108 0.001346071378589617 -0.0044468844988773135
1043995 -0.0019087469340250108 0.001346071378589617 -0.0044468844988773135
1043994 -0.0019087469340250108 0.001346071378589617 -0.0044468844988773135
1043993 -0.0019087469340250108 0.001346071378589617 -0.0044468844988773135
1043973 -0.002170624299918519 0.004041562701792805 0.0036183293560760046
1043974 -0.002170624299918519 0.004041562701792805 0.0036183293560760046
1043975 -0.002170624299918519 0.004041562701792805 0.0036183293560760046
1043976 -0.002170624299918519 0.004041562701792805 0.0036183293560760046
1043977 0.00443129126744366 -0.0011102029386046977 -0.005388650222666313
1043978 0.00443129126744366 -0.0011102029386046977 -0.005388650222666313
1043979 0.00443129126744366 -0.0011102029386046977 -0.005388650222666313
1043980 0.00443129126744366 -0.0011102029386046977 -0.005388650222666313
1043988 0.004503735514773564 0.0014169826541374688 0.003846085888099798
1043987 0.004503735514773564 0.0014169826541374688 0.003846085888099798
1043986 0.004503735514773564 0.0014169826541374688 0.003846085888099798
1043985 0.004503735514773564 0.0014169826541374688 0.003846085888099798
1043989 0.005916146324759478 -0.0016909052274551827 0.0026217638249393526
1043990 0.005916146324759478 -0.0016909052274551827 0.0026217638249393526
1043991 0.005916146324759478 -0.0016909052274551827 0.0026217638249393526
1043992 0.005916146324759478 -0.0016909052274551827 0.0026217638249393526
1044001 0.0012109004847920526 -0.005107752682360744 -0.0022986966993001267
1044002 0.0012109004847920526 -0.005107752682360744 -0.0022986966993001267
1044003 0.0012109004847920526 -0.005107752682360744 -0.0022986966993001267
1044004 0.0012109004847920526 -0.005107752682360744 -0.0022986966993001267
1044005 0.00568139042140819 -0.002055033562769347 -0.001669891035748966
1044006 0.00568139042140819 -0.002055033562769347 -0.001669891035748966
1044007 0.00568139042140819 -0.002055033562769347 -0.001669891035748966
1044008 0.00568139042140819 -0.002055033562769347 -0.001669891035748966
1044009 0.0007999338354478329 0.011060780865675838 -0.005198008300207404
1044010 0.0007999338354478329 0.011060780865675838 -0.005198008300207404
1044011 0.0007999338354478329 0.011060780865675838 -0.005198008300207404
1044012 0.0007999338354478329 0.011060780865675838 -0.005198008300207404

Bonds

1 1 1043909 1043910
2 2 1043909 1043912
3 2 1043909 1043911
4 1 1043941 1043942
5 2 1043941 1043944
6 2 1043941 1043943
7 1 1043929 1043930
8 2 1043929 1043932
9 2 1043929 1043931
10 1 1039837 1039838
11 2 1039837 1039840
12 2 1039837 1039839
13 1 668301 668302
14 2 668301 668304
15 2 668301 668303
16 1 1017441 1017442
17 2 1017441 1017444
18 2 1017441 1017443
19 1 1043997 1043998
20 2 1043997 1044000
21 2 1043997 1043999
22 1 1043993 1043994
23 2 1043993 1043996
24 2 1043993 1043995
25 1 1043973 1043974
26 2 1043973 1043976
27 2 1043973 1043975
28 1 1043977 1043978
29 2 1043977 1043980
30 2 1043977 1043979
31 1 1043985 1043986
32 2 1043985 1043988
33 2 1043985 1043987
34 1 1043989 1043990
35 2 1043989 1043992
36 2 1043989 1043991
37 1 1044001 1044002
38 2 1044001 1044004
39 2 1044001 1044003
40 1 1044005 1044006
41 2 1044005 1044008
42 2 1044005 1044007
43 1 1044009 1044010
44 2 1044009 1044012
45 2 1044009 1044011

Angles

1 1 1043910 1043909 1043912
2 1 1043910 1043909 1043911
3 2 1043912 1043909 1043911
4 1 1043942 1043941 1043944
5 1 1043942 1043941 1043943
6 2 1043944 1043941 1043943
7 1 1043930 1043929 1043932
8 1 1043930 1043929 1043931
9 2 1043932 1043929 1043931
10 1 1039838 1039837 1039840
11 1 1039838 1039837 1039839
12 2 1039840 1039837 1039839
13 1 668302 668301 668304
14 1 668302 668301 668303
15 2 668304 668301 668303
16 1 1017442 1017441 1017444
17 1 1017442 1017441 1017443
18 2 1017444 1017441 1017443
19 1 1043998 1043997 1044000
20 1 1043998 1043997 1043999
21 2 1044000 1043997 1043999
22 1 1043994 1043993 1043996
23 1 1043994 1043993 1043995
24 2 1043996 1043993 1043995
25 1 1043974 1043973 1043976
26 1 1043974 1043973 1043975
27 2 1043976 1043973 1043975
28 1 1043978 1043977 1043980
29 1 1043978 1043977 1043979
30 2 1043980 1043977 1043979
31 1 1043986 1043985 1043988
32 1 1043986 1043985 1043987
33 2 1043988 1043985 1043987
34 1 1043990 1043989 1043992
35 1 1043990 1043989 1043991
36 2 1043992 1043989 1043991
37 1 1044002 1044001 1044004
38 1 1044002 1044001 1044003
39 2 1044004 1044001 1044003
40 1 1044006 1044005 1044008
41 1 1044006 1044005 1044007
42 2 1044008 1044005 1044007
43 1 1044010 1044009 1044012
44 1 1044010 1044009 1044011
45 2 1044012 1044009 1044011
